
     Program PWSCF v.7.3.1 starts on 11Aug2025 at 13:36:25 

     This program is part of the open-source Quantum ESPRESSO suite
     for quantum simulation of materials; please cite
         "P. Giannozzi et al., J. Phys.:Condens. Matter 21 395502 (2009);
         "P. Giannozzi et al., J. Phys.:Condens. Matter 29 465901 (2017);
         "P. Giannozzi et al., J. Chem. Phys. 152 154105 (2020);
          URL http://www.quantum-espresso.org", 
     in publications or presentations arising from this work. More details at
     http://www.quantum-espresso.org/quote

     Serial version
     3278 MiB available memory on the printing compute node when the environment starts

     Waiting for input...
     Reading input from standard input

     Current dimensions of program PWSCF are:
     Max number of different atomic species (ntypx) = 10
     Max number of k-points (npk) =  40000
     Max angular momentum in pseudopotentials (lmaxx) =  4
     file Ni.UPF: wavefunction(s)  3P 3D renormalized
     file Al.UPF: wavefunction(s)  3S 3P renormalized
     Message from routine setup:
     using ibrav=0 with symmetry is DISCOURAGED, use correct ibrav instead


     G-vector sticks info
     --------------------
     sticks:   dense  smooth     PW     G-vecs:    dense   smooth      PW
     Sum         847     425    139                17875     6317    1191

     Using Slab Decomposition



     bravais-lattice index     =            0
     lattice parameter (alat)  =       5.2993  a.u.
     unit-cell volume          =     132.5441 (a.u.)^3
     number of atoms/cell      =            4
     number of atomic types    =            2
     number of electrons       =        57.00
     number of Kohn-Sham states=           35
     kinetic-energy cutoff     =      50.0000  Ry
     charge density cutoff     =     400.0000  Ry
     scf convergence threshold =      1.0E-06
     mixing beta               =       0.3000
     number of iterations used =            8  plain     mixing
     Exchange-correlation= SLA  PW   PBX  PBC
                           (   1   4   3   4   0   0   0)

     celldm(1)=   5.299258  celldm(2)=   0.000000  celldm(3)=   0.000000
     celldm(4)=   0.000000  celldm(5)=   0.000000  celldm(6)=   0.000000

     crystal axes: (cart. coord. in units of alat)
               a(1) = (  -0.700038  -0.141047   0.700038 )  
               a(2) = (   0.141047   0.700038   0.700038 )  
               a(3) = (  -0.700038   0.700038  -0.141047 )  

     reciprocal axes: (cart. coord. in units 2 pi/alat)
               b(1) = ( -0.661068 -0.527873  0.661068 )  
               b(2) = (  0.527873  0.661068  0.661068 )  
               b(3) = ( -0.661068  0.661068 -0.527873 )  


     PseudoPot. # 1 for Ni read from file:
     ./Ni.UPF
     MD5 check sum: 6e86b733589c3ad8389697b807d86aa7
     Pseudo is Projector augmented-wave + core cor, Zval = 18.0
     Generated using &quot;atomic&quot; code by A. Dal Corso  v.6.3
     Shape of augmentation charge: PSQ
     Using radial grid of 1195 points,  6 beta functions with: 
                l(1) =   0
                l(2) =   0
                l(3) =   1
                l(4) =   1
                l(5) =   2
                l(6) =   2
     Q(r) pseudized with 0 coefficients 


     PseudoPot. # 2 for Al read from file:
     ./Al.UPF
     MD5 check sum: cfc449ca30b5f3223ec38ddd88ac046d
     Pseudo is Projector augmented-wave + core cor, Zval =  3.0
     Generated using "atomic" code by A. Dal Corso  v.5.1
     Shape of augmentation charge: PSQ
     Using radial grid of 1135 points,  6 beta functions with: 
                l(1) =   0
                l(2) =   0
                l(3) =   1
                l(4) =   1
                l(5) =   2
                l(6) =   2
     Q(r) pseudized with 0 coefficients 


     atomic species   valence    mass     pseudopotential
     Ni               18.00    58.69340     Ni( 1.00)
     Al                3.00    26.98150     Al( 1.00)

     Starting magnetic structure 
     atomic species   magnetization
     Ni              0.600
     Al              0.000

     12 Sym. Ops., with inversion, found ( 8 have fractional translation)


                                    s                        frac. trans.

      isym =  1     identity                                     

 cryst.   s( 1) = (     1          0          0      )
                  (     0          1          0      )
                  (     0          0          1      )

 cart.    s( 1) = (  1.0000000  0.0000000  0.0000000 )
                  (  0.0000000  1.0000000  0.0000000 )
                  ( -0.0000000  0.0000000  1.0000000 )


      isym =  2     180 deg rotation - cart. axis [1,1,0]        

 cryst.   s( 2) = (     0         -1          0      )    f =(  0.5000000 )
                  (    -1          0          0      )       (  0.5000000 )
                  (     0          0         -1      )       (  0.0000000 )

 cart.    s( 2) = (  0.0000000  1.0000000  0.0000000 )    f =( -0.2794953 )
                  (  1.0000000  0.0000000  0.0000000 )       (  0.2794953 )
                  (  0.0000000 -0.0000000 -1.0000000 )       (  0.7000377 )


      isym =  3     180 deg rotation - cart. axis [1,0,1]        

 cryst.   s( 3) = (    -1          0          0      )
                  (     0          0         -1      )
                  (     0         -1          0      )

 cart.    s( 3) = (  0.0000000  0.0000000  1.0000000 )
                  (  0.0000000 -1.0000000  0.0000000 )
                  (  1.0000000 -0.0000000 -0.0000000 )


      isym =  4     180 deg rotation - cart. axis [0,1,-1]       

 cryst.   s( 4) = (     0          0         -1      )    f =(  0.5000000 )
                  (     0         -1          0      )       (  0.0000000 )
                  (    -1          0          0      )       (  0.5000000 )

 cart.    s( 4) = ( -1.0000000  0.0000000  0.0000000 )    f =( -0.7000377 )
                  (  0.0000000  0.0000000 -1.0000000 )       (  0.2794953 )
                  (  0.0000000 -1.0000000 -0.0000000 )       (  0.2794953 )


      isym =  5     120 deg rotation - cart. axis [-1,1,1]       

 cryst.   s( 5) = (     0          1          0      )    f =( -0.5000000 )
                  (     0          0          1      )       ( -0.5000000 )
                  (     1          0          0      )       (  0.0000000 )

 cart.    s( 5) = (  0.0000000 -1.0000000  0.0000000 )    f =(  0.2794953 )
                  (  0.0000000  0.0000000  1.0000000 )       ( -0.2794953 )
                  ( -1.0000000  0.0000000  0.0000000 )       ( -0.7000377 )


      isym =  6     120 deg rotation - cart. axis [1,-1,-1]      

 cryst.   s( 6) = (     0          0          1      )    f =( -0.5000000 )
                  (     1          0          0      )       (  0.0000000 )
                  (     0          1          0      )       ( -0.5000000 )

 cart.    s( 6) = (  0.0000000  0.0000000 -1.0000000 )    f =(  0.7000377 )
                  ( -1.0000000  0.0000000  0.0000000 )       ( -0.2794953 )
                  ( -0.0000000  1.0000000  0.0000000 )       ( -0.2794953 )


      isym =  7     inversion                                    

 cryst.   s( 7) = (    -1          0          0      )
                  (     0         -1          0      )
                  (     0          0         -1      )

 cart.    s( 7) = ( -1.0000000  0.0000000  0.0000000 )
                  (  0.0000000 -1.0000000  0.0000000 )
                  (  0.0000000 -0.0000000 -1.0000000 )


      isym =  8     inv. 180 deg rotation - cart. axis [1,1,0]   

 cryst.   s( 8) = (     0          1          0      )    f =( -0.5000000 )
                  (     1          0          0      )       ( -0.5000000 )
                  (     0          0          1      )       (  0.0000000 )

 cart.    s( 8) = (  0.0000000 -1.0000000  0.0000000 )    f =(  0.2794953 )
                  ( -1.0000000  0.0000000  0.0000000 )       ( -0.2794953 )
                  ( -0.0000000  0.0000000  1.0000000 )       ( -0.7000377 )


      isym =  9     inv. 180 deg rotation - cart. axis [1,0,1]   

 cryst.   s( 9) = (     1          0          0      )
                  (     0          0          1      )
                  (     0          1          0      )

 cart.    s( 9) = (  0.0000000  0.0000000 -1.0000000 )
                  (  0.0000000  1.0000000  0.0000000 )
                  ( -1.0000000  0.0000000  0.0000000 )


      isym = 10     inv. 180 deg rotation - cart. axis [0,1,-1]  

 cryst.   s(10) = (     0          0          1      )    f =( -0.5000000 )
                  (     0          1          0      )       (  0.0000000 )
                  (     1          0          0      )       ( -0.5000000 )

 cart.    s(10) = (  1.0000000  0.0000000  0.0000000 )    f =(  0.7000377 )
                  (  0.0000000  0.0000000  1.0000000 )       ( -0.2794953 )
                  ( -0.0000000  1.0000000  0.0000000 )       ( -0.2794953 )


      isym = 11     inv. 120 deg rotation - cart. axis [-1,1,1]  

 cryst.   s(11) = (     0         -1          0      )    f =(  0.5000000 )
                  (     0          0         -1      )       (  0.5000000 )
                  (    -1          0          0      )       (  0.0000000 )

 cart.    s(11) = (  0.0000000  1.0000000  0.0000000 )    f =( -0.2794953 )
                  (  0.0000000  0.0000000 -1.0000000 )       (  0.2794953 )
                  (  1.0000000 -0.0000000 -0.0000000 )       (  0.7000377 )


      isym = 12     inv. 120 deg rotation - cart. axis [1,-1,-1] 

 cryst.   s(12) = (     0          0         -1      )    f =(  0.5000000 )
                  (    -1          0          0      )       (  0.0000000 )
                  (     0         -1          0      )       (  0.5000000 )

 cart.    s(12) = (  0.0000000  0.0000000  1.0000000 )    f =( -0.7000377 )
                  (  1.0000000  0.0000000  0.0000000 )       (  0.2794953 )
                  (  0.0000000 -1.0000000 -0.0000000 )       (  0.2794953 )


   Cartesian axes

     site n.     atom                  positions (alat units)
         1        Ni     tau(   1) = (   0.0000000   0.0000000   0.0000000  )
         2        Ni     tau(   2) = (  -0.2794953   0.2794953   0.7000377  )
         3        Ni     tau(   3) = (  -0.7000377   0.2794953   0.2794953  )
         4        Al     tau(   4) = (  -0.2794953   0.7000377   0.2794953  )

   Crystallographic axes

     site n.     atom                  positions (cryst. coord.)
         1        Ni     tau(   1) = (  0.0000000  0.0000000  0.0000000  )
         2        Ni     tau(   2) = (  0.5000000  0.5000000  0.0000000  )
         3        Ni     tau(   3) = (  0.5000000  0.0000000  0.5000000  )
         4        Al     tau(   4) = (  0.0000000  0.5000000  0.5000000  )

     number of k points=    65  Methfessel-Paxton smearing, width (Ry)=  0.0200
                       cart. coord. in units 2pi/alat
        k(    1) = (   0.0000000   0.0000000   0.0000000), wk =   0.0019531
        k(    2) = (  -0.0826335   0.0826335  -0.0659841), wk =   0.0117188
        k(    3) = (  -0.1652670   0.1652670  -0.1319682), wk =   0.0117188
        k(    4) = (  -0.2479005   0.2479005  -0.1979522), wk =   0.0117188
        k(    5) = (   0.3305340  -0.3305340   0.2639363), wk =   0.0058594
        k(    6) = (  -0.0166494   0.1652670   0.0166494), wk =   0.0117188
        k(    7) = (  -0.0992829   0.2479005  -0.0493347), wk =   0.0234375
        k(    8) = (  -0.1819164   0.3305340  -0.1153187), wk =   0.0234375
        k(    9) = (   0.3965181  -0.2479005   0.3465698), wk =   0.0234375
        k(   10) = (   0.3138846  -0.1652670   0.2805857), wk =   0.0234375
        k(   11) = (   0.2312511  -0.0826335   0.2146017), wk =   0.0234375
        k(   12) = (   0.1486176   0.0000000   0.1486176), wk =   0.0117188
        k(   13) = (  -0.0332988   0.3305340   0.0332988), wk =   0.0117188
        k(   14) = (  -0.1159323   0.4131675  -0.0326852), wk =   0.0234375
        k(   15) = (   0.4625021  -0.1652670   0.4292033), wk =   0.0234375
        k(   16) = (   0.3798686  -0.0826335   0.3632192), wk =   0.0234375
        k(   17) = (   0.2972352   0.0000000   0.2972352), wk =   0.0117188
        k(   18) = (  -0.0499482   0.4958010   0.0499482), wk =   0.0117188
        k(   19) = (   0.5284862  -0.0826335   0.5118368), wk =   0.0234375
        k(   20) = (   0.4458527   0.0000000   0.4458527), wk =   0.0117188
        k(   21) = (   0.0665977  -0.6610680  -0.0665977), wk =   0.0058594
        k(   22) = (  -0.0992829   0.0992829   0.0992829), wk =   0.0039062
        k(   23) = (  -0.1819164   0.1819164   0.0332988), wk =   0.0117188
        k(   24) = (  -0.2645499   0.2645499  -0.0326852), wk =   0.0117188
        k(   25) = (   0.3138846  -0.3138846   0.4292033), wk =   0.0117188
        k(   26) = (   0.2312511  -0.2312511   0.3632192), wk =   0.0117188
        k(   27) = (   0.1486176  -0.1486176   0.2972352), wk =   0.0117188
        k(   28) = (   0.0659841  -0.0659841   0.2312511), wk =   0.0117188
        k(   29) = (  -0.1159323   0.2645499   0.1159323), wk =   0.0117188
        k(   30) = (  -0.1985658   0.3471834   0.0499482), wk =   0.0234375
        k(   31) = (   0.3798686  -0.2312511   0.5118368), wk =   0.0234375
        k(   32) = (   0.2972352  -0.1486176   0.4458527), wk =   0.0234375
        k(   33) = (   0.2146017  -0.0659841   0.3798686), wk =   0.0234375
        k(   34) = (   0.1319682   0.0166494   0.3138846), wk =   0.0234375
        k(   35) = (  -0.1325817   0.4298169   0.1325817), wk =   0.0117188
        k(   36) = (   0.4458527  -0.1486176   0.5944703), wk =   0.0234375
        k(   37) = (   0.3632192  -0.0659841   0.5284862), wk =   0.0234375
        k(   38) = (   0.2805857   0.0166494   0.4625021), wk =   0.0234375
        k(   39) = (   0.1979522   0.0992829   0.3965181), wk =   0.0234375
        k(   40) = (  -0.0160358  -0.7270520   0.0160358), wk =   0.0117188
        k(   41) = (  -0.0986693  -0.6444186  -0.0499482), wk =   0.0234375
        k(   42) = (  -0.1813028  -0.5617851  -0.1159323), wk =   0.0234375
        k(   43) = (  -0.2639363  -0.4791516  -0.1819164), wk =   0.0117188
        k(   44) = (  -0.0326852  -0.5617851   0.0326852), wk =   0.0117188
        k(   45) = (  -0.1153187  -0.4791516  -0.0332988), wk =   0.0234375
        k(   46) = (  -0.0493347  -0.3965181   0.0493347), wk =   0.0117188
        k(   47) = (  -0.1985658   0.1985658   0.1985658), wk =   0.0039062
        k(   48) = (  -0.2811993   0.2811993   0.1325817), wk =   0.0117188
        k(   49) = (   0.2972352  -0.2972352   0.5944703), wk =   0.0117188
        k(   50) = (   0.2146017  -0.2146017   0.5284862), wk =   0.0117188
        k(   51) = (   0.1319682  -0.1319682   0.4625021), wk =   0.0117188
        k(   52) = (  -0.2152152   0.3638328   0.2152152), wk =   0.0117188
        k(   53) = (   0.3632192  -0.2146017   0.6771038), wk =   0.0234375
        k(   54) = (   0.2805857  -0.1319682   0.6111197), wk =   0.0234375
        k(   55) = (   0.1979522  -0.0493347   0.5451356), wk =   0.0234375
        k(   56) = (  -0.0986693  -0.7930361   0.0986693), wk =   0.0117188
        k(   57) = (  -0.1813028  -0.7104026   0.0326852), wk =   0.0234375
        k(   58) = (  -0.2639363  -0.6277691  -0.0332988), wk =   0.0117188
        k(   59) = (  -0.1153187  -0.6277691   0.1153187), wk =   0.0117188
        k(   60) = (  -0.2978487   0.2978487   0.2978487), wk =   0.0039062
        k(   61) = (   0.2805857  -0.2805857   0.7597373), wk =   0.0117188
        k(   62) = (   0.1979522  -0.1979522   0.6937532), wk =   0.0117188
        k(   63) = (  -0.1813028  -0.8590202   0.1813028), wk =   0.0117188
        k(   64) = (  -0.2639363  -0.7763867   0.1153187), wk =   0.0117188
        k(   65) = (   0.3971316  -0.3971316  -0.3971316), wk =   0.0019531

                       cryst. coord.
        k(    1) = (   0.0000000   0.0000000   0.0000000), wk =   0.0019531
        k(    2) = (   0.0000000   0.0000000   0.1250000), wk =   0.0117188
        k(    3) = (   0.0000000   0.0000000   0.2500000), wk =   0.0117188
        k(    4) = (   0.0000000   0.0000000   0.3750000), wk =   0.0117188
        k(    5) = (   0.0000000   0.0000000  -0.5000000), wk =   0.0058594
        k(    6) = (   0.0000000   0.1250000   0.1250000), wk =   0.0117188
        k(    7) = (   0.0000000   0.1250000   0.2500000), wk =   0.0234375
        k(    8) = (   0.0000000   0.1250000   0.3750000), wk =   0.0234375
        k(    9) = (   0.0000000   0.1250000  -0.5000000), wk =   0.0234375
        k(   10) = (  -0.0000000   0.1250000  -0.3750000), wk =   0.0234375
        k(   11) = (   0.0000000   0.1250000  -0.2500000), wk =   0.0234375
        k(   12) = (   0.0000000   0.1250000  -0.1250000), wk =   0.0117188
        k(   13) = (   0.0000000   0.2500000   0.2500000), wk =   0.0117188
        k(   14) = (   0.0000000   0.2500000   0.3750000), wk =   0.0234375
        k(   15) = (   0.0000000   0.2500000  -0.5000000), wk =   0.0234375
        k(   16) = (  -0.0000000   0.2500000  -0.3750000), wk =   0.0234375
        k(   17) = (   0.0000000   0.2500000  -0.2500000), wk =   0.0117188
        k(   18) = (   0.0000000   0.3750000   0.3750000), wk =   0.0117188
        k(   19) = (  -0.0000000   0.3750000  -0.5000000), wk =   0.0234375
        k(   20) = (   0.0000000   0.3750000  -0.3750000), wk =   0.0117188
        k(   21) = (  -0.0000000  -0.5000000  -0.5000000), wk =   0.0058594
        k(   22) = (   0.1250000   0.1250000   0.1250000), wk =   0.0039062
        k(   23) = (   0.1250000   0.1250000   0.2500000), wk =   0.0117188
        k(   24) = (   0.1250000   0.1250000   0.3750000), wk =   0.0117188
        k(   25) = (   0.1250000   0.1250000  -0.5000000), wk =   0.0117188
        k(   26) = (   0.1250000   0.1250000  -0.3750000), wk =   0.0117188
        k(   27) = (   0.1250000   0.1250000  -0.2500000), wk =   0.0117188
        k(   28) = (   0.1250000   0.1250000  -0.1250000), wk =   0.0117188
        k(   29) = (   0.1250000   0.2500000   0.2500000), wk =   0.0117188
        k(   30) = (   0.1250000   0.2500000   0.3750000), wk =   0.0234375
        k(   31) = (   0.1250000   0.2500000  -0.5000000), wk =   0.0234375
        k(   32) = (   0.1250000   0.2500000  -0.3750000), wk =   0.0234375
        k(   33) = (   0.1250000   0.2500000  -0.2500000), wk =   0.0234375
        k(   34) = (   0.1250000   0.2500000  -0.1250000), wk =   0.0234375
        k(   35) = (   0.1250000   0.3750000   0.3750000), wk =   0.0117188
        k(   36) = (   0.1250000   0.3750000  -0.5000000), wk =   0.0234375
        k(   37) = (   0.1250000   0.3750000  -0.3750000), wk =   0.0234375
        k(   38) = (   0.1250000   0.3750000  -0.2500000), wk =   0.0234375
        k(   39) = (   0.1250000   0.3750000  -0.1250000), wk =   0.0234375
        k(   40) = (   0.1250000  -0.5000000  -0.5000000), wk =   0.0117188
        k(   41) = (   0.1250000  -0.5000000  -0.3750000), wk =   0.0234375
        k(   42) = (   0.1250000  -0.5000000  -0.2500000), wk =   0.0234375
        k(   43) = (   0.1250000  -0.5000000  -0.1250000), wk =   0.0117188
        k(   44) = (   0.1250000  -0.3750000  -0.3750000), wk =   0.0117188
        k(   45) = (   0.1250000  -0.3750000  -0.2500000), wk =   0.0234375
        k(   46) = (   0.1250000  -0.2500000  -0.2500000), wk =   0.0117188
        k(   47) = (   0.2500000   0.2500000   0.2500000), wk =   0.0039062
        k(   48) = (   0.2500000   0.2500000   0.3750000), wk =   0.0117188
        k(   49) = (   0.2500000   0.2500000  -0.5000000), wk =   0.0117188
        k(   50) = (   0.2500000   0.2500000  -0.3750000), wk =   0.0117188
        k(   51) = (   0.2500000   0.2500000  -0.2500000), wk =   0.0117188
        k(   52) = (   0.2500000   0.3750000   0.3750000), wk =   0.0117188
        k(   53) = (   0.2500000   0.3750000  -0.5000000), wk =   0.0234375
        k(   54) = (   0.2500000   0.3750000  -0.3750000), wk =   0.0234375
        k(   55) = (   0.2500000   0.3750000  -0.2500000), wk =   0.0234375
        k(   56) = (   0.2500000  -0.5000000  -0.5000000), wk =   0.0117188
        k(   57) = (   0.2500000  -0.5000000  -0.3750000), wk =   0.0234375
        k(   58) = (   0.2500000  -0.5000000  -0.2500000), wk =   0.0117188
        k(   59) = (   0.2500000  -0.3750000  -0.3750000), wk =   0.0117188
        k(   60) = (   0.3750000   0.3750000   0.3750000), wk =   0.0039062
        k(   61) = (   0.3750000   0.3750000  -0.5000000), wk =   0.0117188
        k(   62) = (   0.3750000   0.3750000  -0.3750000), wk =   0.0117188
        k(   63) = (   0.3750000  -0.5000000  -0.5000000), wk =   0.0117188
        k(   64) = (   0.3750000  -0.5000000  -0.3750000), wk =   0.0117188
        k(   65) = (  -0.5000000  -0.5000000  -0.5000000), wk =   0.0019531

     Dense  grid:    17875 G-vectors     FFT dimensions: (  36,  36,  36)

     Smooth grid:     6317 G-vectors     FFT dimensions: (  24,  24,  24)

     Dynamical RAM for                 wfc:       0.42 MB

     Dynamical RAM for     wfc (w. buffer):      55.34 MB

     Dynamical RAM for           str. fact:       0.55 MB

     Dynamical RAM for           local pot:       0.00 MB

     Dynamical RAM for          nlocal pot:       0.87 MB

     Dynamical RAM for                qrad:       3.21 MB

     Dynamical RAM for          rho,v,vnew:       3.77 MB

     Dynamical RAM for               rhoin:       1.26 MB

     Dynamical RAM for            rho*nmix:       8.73 MB

     Dynamical RAM for           G-vectors:       1.07 MB

     Dynamical RAM for          h,s,v(r/c):       0.22 MB

     Dynamical RAM for          <psi|beta>:       0.04 MB

     Dynamical RAM for                 psi:       0.84 MB

     Dynamical RAM for                hpsi:       0.84 MB

     Dynamical RAM for                spsi:       0.84 MB

     Dynamical RAM for      wfcinit/wfcrot:       0.87 MB

     Dynamical RAM for           addusdens:      51.82 MB

     Estimated static dynamical RAM per process >      69.02 MB

     Estimated max dynamical RAM per process >     129.57 MB
     Generating pointlists ...
     new r_m :   0.2453 (alat units)  1.3001 (a.u.) for type    1
     new r_m :   0.2453 (alat units)  1.3001 (a.u.) for type    2

     Initial potential from superposition of free atoms

     starting charge      56.9970, renormalised to      57.0000
     Starting wfcs are   34 randomized atomic wfcs +    1 random wfcs

     total cpu time spent up to now is        3.2 secs

     Self-consistent Calculation

     iteration #  1     ecut=    50.00 Ry     beta= 0.30
     Davidson diagonalization with overlap

---- Real-time Memory Report at c_bands before calling an iterative solver
            94 MiB given to the printing process from OS
             0 MiB allocation reported by mallinfo(arena+hblkhd)
          3183 MiB available memory on the node where the printing process lives
------------------
     ethr =  1.00E-02,  avg # of iterations =  4.9

     total cpu time spent up to now is       10.5 secs

     total energy              =   -1319.42241974 Ry
     estimated scf accuracy    <       9.85717944 Ry

     total magnetization       =     4.30 Bohr mag/cell
     absolute magnetization    =     4.37 Bohr mag/cell

     iteration #  2     ecut=    50.00 Ry     beta= 0.30
     Davidson diagonalization with overlap

---- Real-time Memory Report at c_bands before calling an iterative solver
           148 MiB given to the printing process from OS
             0 MiB allocation reported by mallinfo(arena+hblkhd)
          3172 MiB available memory on the node where the printing process lives
------------------
     ethr =  1.00E-02,  avg # of iterations =  1.0

     total cpu time spent up to now is       17.2 secs

     total energy              =   -1322.14591251 Ry
     estimated scf accuracy    <       5.79485469 Ry

     total magnetization       =     2.72 Bohr mag/cell
     absolute magnetization    =     3.09 Bohr mag/cell

     iteration #  3     ecut=    50.00 Ry     beta= 0.30
     Davidson diagonalization with overlap

---- Real-time Memory Report at c_bands before calling an iterative solver
           149 MiB given to the printing process from OS
             0 MiB allocation reported by mallinfo(arena+hblkhd)
          3170 MiB available memory on the node where the printing process lives
------------------
     ethr =  1.00E-02,  avg # of iterations =  1.0

     total cpu time spent up to now is       24.0 secs

     total energy              =   -1322.51464532 Ry
     estimated scf accuracy    <       0.19132591 Ry

     total magnetization       =     0.31 Bohr mag/cell
     absolute magnetization    =     0.71 Bohr mag/cell

     iteration #  4     ecut=    50.00 Ry     beta= 0.30
     Davidson diagonalization with overlap

---- Real-time Memory Report at c_bands before calling an iterative solver
           149 MiB given to the printing process from OS
             0 MiB allocation reported by mallinfo(arena+hblkhd)
          3170 MiB available memory on the node where the printing process lives
------------------
     ethr =  3.36E-04,  avg # of iterations =  2.3

     total cpu time spent up to now is       36.7 secs

     total energy              =   -1322.54281164 Ry
     estimated scf accuracy    <       0.02940796 Ry

     total magnetization       =    -0.09 Bohr mag/cell
     absolute magnetization    =     0.28 Bohr mag/cell

     iteration #  5     ecut=    50.00 Ry     beta= 0.30
     Davidson diagonalization with overlap

---- Real-time Memory Report at c_bands before calling an iterative solver
           150 MiB given to the printing process from OS
             0 MiB allocation reported by mallinfo(arena+hblkhd)
          3170 MiB available memory on the node where the printing process lives
------------------
     ethr =  5.16E-05,  avg # of iterations =  2.4

     total cpu time spent up to now is       51.4 secs

     total energy              =   -1322.55003014 Ry
     estimated scf accuracy    <       0.00916823 Ry

     total magnetization       =    -0.07 Bohr mag/cell
     absolute magnetization    =     0.16 Bohr mag/cell

     iteration #  6     ecut=    50.00 Ry     beta= 0.30
     Davidson diagonalization with overlap

---- Real-time Memory Report at c_bands before calling an iterative solver
           150 MiB given to the printing process from OS
             0 MiB allocation reported by mallinfo(arena+hblkhd)
          3169 MiB available memory on the node where the printing process lives
------------------
     ethr =  1.61E-05,  avg # of iterations =  2.4

     total cpu time spent up to now is       63.9 secs

     total energy              =   -1322.55222874 Ry
     estimated scf accuracy    <       0.00118486 Ry

     total magnetization       =     0.02 Bohr mag/cell
     absolute magnetization    =     0.09 Bohr mag/cell

     iteration #  7     ecut=    50.00 Ry     beta= 0.30
     Davidson diagonalization with overlap

---- Real-time Memory Report at c_bands before calling an iterative solver
           151 MiB given to the printing process from OS
             0 MiB allocation reported by mallinfo(arena+hblkhd)
          3168 MiB available memory on the node where the printing process lives
------------------
     ethr =  2.08E-06,  avg # of iterations =  3.6

     total cpu time spent up to now is       72.5 secs

     total energy              =   -1322.55241195 Ry
     estimated scf accuracy    <       0.00029341 Ry

     total magnetization       =    -0.03 Bohr mag/cell
     absolute magnetization    =     0.03 Bohr mag/cell

     iteration #  8     ecut=    50.00 Ry     beta= 0.30
     Davidson diagonalization with overlap

---- Real-time Memory Report at c_bands before calling an iterative solver
           151 MiB given to the printing process from OS
             0 MiB allocation reported by mallinfo(arena+hblkhd)
          3167 MiB available memory on the node where the printing process lives
------------------
     ethr =  5.15E-07,  avg # of iterations =  2.1

     total cpu time spent up to now is       79.8 secs

     total energy              =   -1322.55248972 Ry
     estimated scf accuracy    <       0.00001701 Ry

     total magnetization       =    -0.01 Bohr mag/cell
     absolute magnetization    =     0.01 Bohr mag/cell

     iteration #  9     ecut=    50.00 Ry     beta= 0.30
     Davidson diagonalization with overlap

---- Real-time Memory Report at c_bands before calling an iterative solver
           151 MiB given to the printing process from OS
             0 MiB allocation reported by mallinfo(arena+hblkhd)
          3167 MiB available memory on the node where the printing process lives
------------------
     ethr =  2.98E-08,  avg # of iterations =  3.6

     total cpu time spent up to now is       87.4 secs

     total energy              =   -1322.55250182 Ry
     estimated scf accuracy    <       0.00000533 Ry

     total magnetization       =    -0.00 Bohr mag/cell
     absolute magnetization    =     0.01 Bohr mag/cell

     iteration # 10     ecut=    50.00 Ry     beta= 0.30
     Davidson diagonalization with overlap

---- Real-time Memory Report at c_bands before calling an iterative solver
           152 MiB given to the printing process from OS
             0 MiB allocation reported by mallinfo(arena+hblkhd)
          3166 MiB available memory on the node where the printing process lives
------------------
     ethr =  9.35E-09,  avg # of iterations =  2.2

     Magnetic moment per site  (integrated on atomic sphere of radius R)
     atom   1 (R=0.245)  charge= 15.1943  magn= -0.0001
     atom   2 (R=0.245)  charge= 15.1943  magn= -0.0001
     atom   3 (R=0.245)  charge= 15.1943  magn= -0.0001
     atom   4 (R=0.245)  charge=  0.8006  magn= -0.0001

     total cpu time spent up to now is       94.7 secs

     End of self-consistent calculation

 ------ SPIN UP ------------


          k = 0.0000 0.0000 0.0000 (   765 PWs)   bands (ev):

   -66.1055 -64.4321 -64.4321 -29.2954 -27.6052 -27.6052 -25.0275 -24.7173
   -24.5095 -24.5095 -23.4596 -23.4596  24.4896  27.3464  28.7013  29.3610
    29.3610  30.2928  30.2928  32.1092  37.6131  37.6131  39.9314  40.7399
    40.7399  41.1212  41.1212  43.9444  44.8132  44.8132  44.8657  54.4474
    54.4474  56.7579  57.1439

     occupation numbers 
     1.0000   1.0000   1.0000   1.0000   1.0000   1.0000   1.0000   1.0000
     1.0000   1.0000   1.0000   1.0000   1.0000   1.0000   1.0000   1.0000
     1.0000   1.0000   1.0000   1.0000   1.0000   1.0000   1.0000   1.0000
     1.0000   1.0162   1.0162  -0.0000  -0.0000  -0.0000  -0.0000  -0.0000
    -0.0000  -0.0000  -0.0000

          k =-0.0826 0.0826-0.0660 (   779 PWs)   bands (ev):

   -66.0512 -64.4921 -64.4308 -29.1435 -27.6047 -27.5055 -25.0217 -24.8113
   -24.5319 -24.5135 -23.7062 -23.5221  24.8476  27.6656  28.9237  29.4710
    29.7396  30.3091  30.5354  32.2810  37.1950  37.5241  39.5918  40.1007
    40.4134  40.6814  40.9794  42.8057  43.8812  45.6014  46.1633  53.5666
    54.4002  55.8946  57.8181

     occupation numbers 
     1.0000   1.0000   1.0000   1.0000   1.0000   1.0000   1.0000   1.0000
     1.0000   1.0000   1.0000   1.0000   1.0000   1.0000   1.0000   1.0000
     1.0000   1.0000   1.0000   1.0000   1.0000   1.0000   1.0000   1.0000
     1.0000   1.0000   1.0029  -0.0000  -0.0000  -0.0000  -0.0000  -0.0000
    -0.0000  -0.0000  -0.0000

          k =-0.1653 0.1653-0.1320 (   783 PWs)   bands (ev):

   -65.8979 -64.6581 -64.4277 -28.7387 -27.5131 -27.1999 -25.0952 -24.9894
   -24.6032 -24.5265 -24.3310 -23.6213  25.8871  28.5179  29.3471  29.8974
    30.3608  30.8039  31.2493  32.9218  36.0960  37.1346  38.5053  38.7312
    39.0472  40.3015  40.6165  41.6362  41.8420  47.2639  47.8997  52.5252
    54.0311  55.5385  58.1034

     occupation numbers 
     1.0000   1.0000   1.0000   1.0000   1.0000   1.0000   1.0000   1.0000
     1.0000   1.0000   1.0000   1.0000   1.0000   1.0000   1.0000   1.0000
     1.0000   1.0000   1.0000   1.0000   1.0000   1.0000   1.0000   1.0000
     1.0000   1.0000   1.0000   0.3862  -0.0100  -0.0000  -0.0000  -0.0000
    -0.0000  -0.0000  -0.0000

          k =-0.2479 0.2479-0.1980 (   791 PWs)   bands (ev):

   -65.6859 -64.8827 -64.4246 -28.3720 -27.1459 -26.7400 -25.5742 -25.2360
   -24.9269 -24.6770 -24.5371 -23.6919  27.3846  29.3527  29.5350  30.4595
    30.6330  31.9727  32.5923  33.9163  35.0534  36.0604  36.9700  37.5166
    37.8477  39.0281  39.1960  40.5889  41.6093  49.0321  49.2683  52.7269
    52.8206  55.8471  57.1990

     occupation numbers 
     1.0000   1.0000   1.0000   1.0000   1.0000   1.0000   1.0000   1.0000
     1.0000   1.0000   1.0000   1.0000   1.0000   1.0000   1.0000   1.0000
     1.0000   1.0000   1.0000   1.0000   1.0000   1.0000   1.0000   1.0000
     1.0000   1.0000   1.0000   1.0000   0.4685  -0.0000  -0.0000  -0.0000
    -0.0000  -0.0000  -0.0000

          k = 0.3305-0.3305 0.2639 (   792 PWs)   bands (ev):

   -65.5497 -65.0240 -64.4234 -28.2617 -26.5500 -26.2772 -26.0494 -26.0006
   -24.8836 -24.7189 -24.5447 -23.7195  28.5808  29.0840  29.8680  30.5634
    30.8611  32.5021  33.9899  34.3711  34.4496  36.0442  36.2069  36.5454
    37.2305  37.2570  38.8308  40.5815  41.5806  49.2411  51.1730  51.2379
    53.7641  55.8662  55.9092

     occupation numbers 
     1.0000   1.0000   1.0000   1.0000   1.0000   1.0000   1.0000   1.0000
     1.0000   1.0000   1.0000   1.0000   1.0000   1.0000   1.0000   1.0000
     1.0000   1.0000   1.0000   1.0000   1.0000   1.0000   1.0000   1.0000
     1.0000   1.0000   1.0000   1.0000   0.5578  -0.0000  -0.0000  -0.0000
    -0.0000  -0.0000  -0.0000

          k =-0.0166 0.1653 0.0166 (   783 PWs)   bands (ev):

   -66.0466 -64.4896 -64.4373 -29.1430 -27.6071 -27.5010 -25.0622 -24.8104
   -24.5579 -24.4805 -23.7100 -23.5216  25.0535  27.7572  28.9816  29.5652
    29.7326  30.3963  30.7148  32.1770  37.0855  37.6172  39.1623  40.0200
    40.2084  40.3518  40.6581  42.8132  44.5731  45.8238  46.2683  52.4717
    54.2035  55.2353  58.1775

     occupation numbers 
     1.0000   1.0000   1.0000   1.0000   1.0000   1.0000   1.0000   1.0000
     1.0000   1.0000   1.0000   1.0000   1.0000   1.0000   1.0000   1.0000
     1.0000   1.0000   1.0000   1.0000   1.0000   1.0000   1.0000   1.0000
     1.0000   1.0000   1.0000  -0.0000  -0.0000  -0.0000  -0.0000  -0.0000
    -0.0000  -0.0000  -0.0000

          k =-0.0993 0.2479-0.0493 (   782 PWs)   bands (ev):

   -65.9380 -64.6043 -64.4372 -28.8583 -27.5893 -27.2781 -25.0671 -25.0100
   -24.6014 -24.4530 -24.0849 -23.6215  25.9318  28.4472  29.3508  29.8552
    30.4781  30.5643  31.2891  32.5834  36.3144  37.3797  37.8219  38.9219
    39.5918  39.9121  40.4608  41.7869  43.1085  47.0282  47.8746  50.8643
    53.2436  55.9028  57.7952

     occupation numbers 
     1.0000   1.0000   1.0000   1.0000   1.0000   1.0000   1.0000   1.0000
     1.0000   1.0000   1.0000   1.0000   1.0000   1.0000   1.0000   1.0000
     1.0000   1.0000   1.0000   1.0000   1.0000   1.0000   1.0000   1.0000
     1.0000   1.0000   1.0000   0.0437  -0.0000  -0.0000  -0.0000  -0.0000
    -0.0000  -0.0000  -0.0000

          k =-0.1819 0.3305-0.1153 (   785 PWs)   bands (ev):

   -65.7485 -64.8055 -64.4349 -28.4100 -27.4836 -26.8347 -25.4844 -25.0332
   -24.7188 -24.6404 -24.4581 -23.7536  27.2873  29.3970  29.6733  30.3518
    30.8825  31.6965  32.1009  33.6204  35.0782  36.2512  36.6699  37.7994
    38.4161  38.8580  40.3307  40.8265  41.3948  48.1062  49.7678  50.3586
    52.6690  55.8354  57.8236

     occupation numbers 
     1.0000   1.0000   1.0000   1.0000   1.0000   1.0000   1.0000   1.0000
     1.0000   1.0000   1.0000   1.0000   1.0000   1.0000   1.0000   1.0000
     1.0000   1.0000   1.0000   1.0000   1.0000   1.0000   1.0000   1.0000
     1.0000   1.0000   1.0000   1.0002   0.9764  -0.0000  -0.0000  -0.0000
    -0.0000  -0.0000  -0.0000

          k = 0.3965-0.2479 0.3466 (   786 PWs)   bands (ev):

   -65.5467 -65.0160 -64.4334 -28.1317 -27.0161 -26.2638 -26.1756 -25.4048
   -24.9678 -24.7200 -24.4665 -23.8354  28.6219  29.4156  30.1111  30.7574
    30.9923  32.6660  33.2734  34.0119  34.9203  35.5516  35.7489  36.8654
    37.2396  37.9513  39.4239  40.3017  41.1935  47.5841  50.4340  52.4812
    52.9666  55.3659  56.1847

     occupation numbers 
     1.0000   1.0000   1.0000   1.0000   1.0000   1.0000   1.0000   1.0000
     1.0000   1.0000   1.0000   1.0000   1.0000   1.0000   1.0000   1.0000
     1.0000   1.0000   1.0000   1.0000   1.0000   1.0000   1.0000   1.0000
     1.0000   1.0000   1.0000   1.0000   1.0280  -0.0000  -0.0000  -0.0000
    -0.0000  -0.0000  -0.0000

          k = 0.3139-0.1653 0.2806 (   790 PWs)   bands (ev):

   -65.5596 -65.0045 -64.4329 -28.1274 -27.0098 -26.2557 -26.1893 -25.4123
   -24.8970 -24.7743 -24.4820 -23.8386  28.0701  29.4266  29.8869  30.6737
    31.0275  32.3575  33.1671  33.8626  35.0451  35.8532  36.4083  37.0388
    37.4915  38.1451  39.6426  40.3351  41.1513  46.5379  50.3448  52.4239
    55.0864  55.3179  56.0398

     occupation numbers 
     1.0000   1.0000   1.0000   1.0000   1.0000   1.0000   1.0000   1.0000
     1.0000   1.0000   1.0000   1.0000   1.0000   1.0000   1.0000   1.0000
     1.0000   1.0000   1.0000   1.0000   1.0000   1.0000   1.0000   1.0000
     1.0000   1.0000   1.0000   1.0000   1.0210  -0.0000  -0.0000  -0.0000
    -0.0000  -0.0000  -0.0000

          k = 0.2313-0.0826 0.2146 (   790 PWs)   bands (ev):

   -65.7666 -64.7914 -64.4329 -28.4035 -27.4749 -26.8332 -25.4915 -24.9099
   -24.7456 -24.7014 -24.4928 -23.7607  26.5140  29.0592  29.6199  30.2275
    30.4425  31.3225  31.8281  33.6980  35.1252  37.0674  37.6379  38.4661
    38.5953  39.4348  40.3512  41.0304  41.7540  45.3115  48.9132  52.9347
    54.8782  55.7230  56.3234

     occupation numbers 
     1.0000   1.0000   1.0000   1.0000   1.0000   1.0000   1.0000   1.0000
     1.0000   1.0000   1.0000   1.0000   1.0000   1.0000   1.0000   1.0000
     1.0000   1.0000   1.0000   1.0000   1.0000   1.0000   1.0000   1.0000
     1.0000   1.0000   1.0000   1.0059   0.0945  -0.0000  -0.0000  -0.0000
    -0.0000  -0.0000  -0.0000

          k = 0.1486 0.0000 0.1486 (   781 PWs)   bands (ev):

   -65.9510 -64.5980 -64.4323 -28.8480 -27.5872 -27.2721 -25.0232 -24.9725
   -24.6193 -24.5061 -24.0956 -23.6112  25.3592  28.1680  29.3430  29.6400
    30.2396  30.3113  30.9534  32.7701  36.3749  37.4866  38.8408  39.6680
    40.1003  40.3683  40.8853  41.3442  43.9328  44.3789  47.2583  53.8341
    54.1651  56.2357  56.6160

     occupation numbers 
     1.0000   1.0000   1.0000   1.0000   1.0000   1.0000   1.0000   1.0000
     1.0000   1.0000   1.0000   1.0000   1.0000   1.0000   1.0000   1.0000
     1.0000   1.0000   1.0000   1.0000   1.0000   1.0000   1.0000   1.0000
     1.0000   1.0000   1.0007   1.0173  -0.0000  -0.0000  -0.0000  -0.0000
    -0.0000  -0.0000  -0.0000

          k =-0.0333 0.3305 0.0333 (   785 PWs)   bands (ev):

   -65.8808 -64.6504 -64.4498 -28.7568 -27.5342 -27.1955 -25.1175 -25.0934
   -24.6422 -24.3774 -24.3339 -23.6092  26.5908  28.8318  29.6305  30.0929
    30.8035  30.8361  31.9131  32.6671  35.7953  36.8763  37.5800  38.6588
    39.1492  39.3132  40.3907  41.0186  43.3349  47.2455  47.3066  48.8230
    52.9922  57.0213  57.5392

     occupation numbers 
     1.0000   1.0000   1.0000   1.0000   1.0000   1.0000   1.0000   1.0000
     1.0000   1.0000   1.0000   1.0000   1.0000   1.0000   1.0000   1.0000
     1.0000   1.0000   1.0000   1.0000   1.0000   1.0000   1.0000   1.0000
     1.0000   1.0000   1.0000   1.0051  -0.0000  -0.0000  -0.0000  -0.0000
    -0.0000  -0.0000  -0.0000

          k =-0.1159 0.4132-0.0327 (   786 PWs)   bands (ev):

   -65.7364 -64.7976 -64.4531 -28.4377 -27.4800 -26.8322 -25.4782 -25.1324
   -24.7241 -24.6631 -24.3548 -23.7400  27.6953  29.5188  30.0665  30.5508
    31.3237  31.5651  32.6250  33.5090  34.9152  35.6678  37.0537  37.7432
    38.1430  39.0379  40.0024  40.3448  41.9266  46.1026  48.2269  49.0906
    53.1022  56.2321  58.1934

     occupation numbers 
     1.0000   1.0000   1.0000   1.0000   1.0000   1.0000   1.0000   1.0000
     1.0000   1.0000   1.0000   1.0000   1.0000   1.0000   1.0000   1.0000
     1.0000   1.0000   1.0000   1.0000   1.0000   1.0000   1.0000   1.0000
     1.0000   1.0000   1.0000   1.0000  -0.0354  -0.0000  -0.0000  -0.0000
    -0.0000  -0.0000  -0.0000

          k = 0.4625-0.1653 0.4292 (   789 PWs)   bands (ev):

   -65.5343 -65.0068 -64.4533 -27.9282 -27.4395 -26.2498 -26.1956 -25.1102
   -25.0193 -24.7245 -24.3568 -23.9924  28.8148  29.9619  30.8606  30.9631
    31.5895  32.3241  32.9953  33.8898  34.7437  35.1167  35.8471  36.7860
    37.2095  38.9111  39.5800  40.2470  40.4836  44.7753  49.4867  50.7987
    53.4597  55.0869  57.1441

     occupation numbers 
     1.0000   1.0000   1.0000   1.0000   1.0000   1.0000   1.0000   1.0000
     1.0000   1.0000   1.0000   1.0000   1.0000   1.0000   1.0000   1.0000
     1.0000   1.0000   1.0000   1.0000   1.0000   1.0000   1.0000   1.0000
     1.0000   1.0000   1.0000   1.0000   1.0000  -0.0000  -0.0000  -0.0000
    -0.0000  -0.0000  -0.0000

          k = 0.3799-0.0826 0.3632 (   794 PWs)   bands (ev):

   -65.3953 -65.1528 -64.4505 -27.6667 -27.0313 -26.9595 -25.7268 -25.4194
   -25.0005 -24.7747 -24.3976 -24.1080  29.2298  29.4848  30.5781  31.3447
    31.7055  32.8364  33.0883  33.5392  34.3601  35.0892  35.8427  36.7790
    37.7580  38.5469  39.6436  39.8067  40.8187  43.6915  50.7300  52.8845
    53.2133  54.0823  56.6718

     occupation numbers 
     1.0000   1.0000   1.0000   1.0000   1.0000   1.0000   1.0000   1.0000
     1.0000   1.0000   1.0000   1.0000   1.0000   1.0000   1.0000   1.0000
     1.0000   1.0000   1.0000   1.0000   1.0000   1.0000   1.0000   1.0000
     1.0000   1.0000   1.0000   1.0000   1.0002  -0.0000  -0.0000  -0.0000
    -0.0000  -0.0000  -0.0000

          k = 0.2972 0.0000 0.2972 (   789 PWs)   bands (ev):

   -65.5688 -64.9850 -64.4431 -27.9073 -27.4350 -26.2322 -26.2201 -25.0440
   -24.8633 -24.8299 -24.4484 -23.9903  27.7527  29.6000  29.8857  30.9844
    31.1179  32.0342  32.5789  33.8353  34.8700  36.1657  36.3468  37.3875
    37.8680  39.4123  39.6666  40.2316  42.6714  42.6763  50.6984  52.0561
    54.5592  55.4656  56.9023

     occupation numbers 
     1.0000   1.0000   1.0000   1.0000   1.0000   1.0000   1.0000   1.0000
     1.0000   1.0000   1.0000   1.0000   1.0000   1.0000   1.0000   1.0000
     1.0000   1.0000   1.0000   1.0000   1.0000   1.0000   1.0000   1.0000
     1.0000   1.0000   1.0000   1.0000  -0.0000  -0.0000  -0.0000  -0.0000
    -0.0000  -0.0000  -0.0000

          k =-0.0499 0.4958 0.0499 (   787 PWs)   bands (ev):

   -65.6526 -64.8738 -64.4624 -28.4136 -27.1437 -26.7339 -25.5500 -25.2672
   -25.1471 -24.7085 -24.2875 -23.6743  28.4184  29.7023  30.3055  31.0059
    31.7729  32.3900  33.5835  33.6176  34.5674  35.2058  36.9151  37.1004
    37.9745  38.4314  39.3289  40.1992  41.4814  43.7453  47.6267  49.1395
    53.0639  56.9220  58.3252

     occupation numbers 
     1.0000   1.0000   1.0000   1.0000   1.0000   1.0000   1.0000   1.0000
     1.0000   1.0000   1.0000   1.0000   1.0000   1.0000   1.0000   1.0000
     1.0000   1.0000   1.0000   1.0000   1.0000   1.0000   1.0000   1.0000
     1.0000   1.0000   1.0000   1.0000   0.8311  -0.0000  -0.0000  -0.0000
    -0.0000  -0.0000  -0.0000

          k = 0.5285-0.0826 0.5118 (   794 PWs)   bands (ev):

   -65.5139 -65.0135 -64.4653 -28.1993 -27.0103 -26.2643 -26.1774 -25.4033
   -25.1789 -24.7336 -24.2789 -23.8093  29.0555  30.2780  30.7512  31.3205
    32.1884  32.8068  33.6400  33.7631  34.7290  35.2591  35.9207  36.3935
    37.1579  38.4999  39.4511  39.9036  40.7225  42.2045  48.1136  49.8831
    53.0669  56.7365  57.5842

     occupation numbers 
     1.0000   1.0000   1.0000   1.0000   1.0000   1.0000   1.0000   1.0000
     1.0000   1.0000   1.0000   1.0000   1.0000   1.0000   1.0000   1.0000
     1.0000   1.0000   1.0000   1.0000   1.0000   1.0000   1.0000   1.0000
     1.0000   1.0000   1.0000   1.0000   1.0000  -0.0036  -0.0000  -0.0000
    -0.0000  -0.0000  -0.0000

          k = 0.4459 0.0000 0.4459 (   791 PWs)   bands (ev):

   -65.3544 -65.1798 -64.4627 -27.7167 -27.0302 -26.9311 -25.7548 -25.3871
   -25.1091 -24.7509 -24.3160 -24.0994  29.3185  30.5048  31.4250  31.5715
    31.7965  32.3770  33.2847  34.1395  34.1723  34.4284  36.2068  36.2854
    37.3067  38.7609  39.5965  39.6451  41.2341  41.4297  49.3638  51.2237
    53.2922  54.9185  57.0752

     occupation numbers 
     1.0000   1.0000   1.0000   1.0000   1.0000   1.0000   1.0000   1.0000
     1.0000   1.0000   1.0000   1.0000   1.0000   1.0000   1.0000   1.0000
     1.0000   1.0000   1.0000   1.0000   1.0000   1.0000   1.0000   1.0000
     1.0000   1.0000   1.0000   1.0000   1.0337   0.9300  -0.0000  -0.0000
    -0.0000  -0.0000  -0.0000

          k = 0.0666-0.6611-0.0666 (   794 PWs)   bands (ev):

   -65.5026 -65.0218 -64.4676 -28.3214 -26.5616 -26.2947 -25.9952 -25.9871
   -25.2225 -24.7414 -24.2463 -23.6945  29.1323  30.5197  30.6013  31.0150
    32.6914  33.3326  33.5779  34.5595  35.0841  35.1308  35.7491  36.0258
    36.9643  38.6791  38.8284  40.1255  40.4997  41.0560  47.6886  49.5801
    52.8816  57.6028  57.9606

     occupation numbers 
     1.0000   1.0000   1.0000   1.0000   1.0000   1.0000   1.0000   1.0000
     1.0000   1.0000   1.0000   1.0000   1.0000   1.0000   1.0000   1.0000
     1.0000   1.0000   1.0000   1.0000   1.0000   1.0000   1.0000   1.0000
     1.0000   1.0000   1.0000   1.0000   1.0000   1.0081  -0.0000  -0.0000
    -0.0000  -0.0000  -0.0000

          k =-0.0993 0.0993 0.0993 (   795 PWs)   bands (ev):

   -66.0922 -64.4382 -64.4382 -29.3214 -27.6242 -27.6242 -25.1405 -24.7193
   -24.4891 -24.4891 -23.4783 -23.4783  25.1046  27.5607  28.9115  29.4754
    29.4754  30.6870  30.6870  31.7762  37.5392  37.5392  39.3764  39.3764
    39.7046  40.6912  40.6912  43.9330  45.1377  46.1844  46.1844  53.2487
    53.2487  53.3667  57.3722

     occupation numbers 
     1.0000   1.0000   1.0000   1.0000   1.0000   1.0000   1.0000   1.0000
     1.0000   1.0000   1.0000   1.0000   1.0000   1.0000   1.0000   1.0000
     1.0000   1.0000   1.0000   1.0000   1.0000   1.0000   1.0000   1.0000
     1.0000   1.0000   1.0000  -0.0000  -0.0000  -0.0000  -0.0000  -0.0000
    -0.0000  -0.0000  -0.0000

          k =-0.1819 0.1819 0.0333 (   780 PWs)   bands (ev):

   -66.0296 -64.5050 -64.4363 -29.1586 -27.6106 -27.5103 -25.1813 -24.7964
   -24.4837 -24.4391 -23.7013 -23.5223  25.8265  27.9866  29.2394  29.6363
    29.9562  30.9234  31.1159  31.9652  37.2202  37.2379  37.6555  39.0126
    39.6816  40.1609  40.6232  43.1396  43.6923  47.3734  47.8230  51.1907
    52.1564  54.2840  56.9027

     occupation numbers 
     1.0000   1.0000   1.0000   1.0000   1.0000   1.0000   1.0000   1.0000
     1.0000   1.0000   1.0000   1.0000   1.0000   1.0000   1.0000   1.0000
     1.0000   1.0000   1.0000   1.0000   1.0000   1.0000   1.0000   1.0000
     1.0000   1.0000   1.0000  -0.0000  -0.0000  -0.0000  -0.0000  -0.0000
    -0.0000  -0.0000  -0.0000

          k =-0.2645 0.2645-0.0327 (   790 PWs)   bands (ev):

   -65.8720 -64.6754 -64.4330 -28.7636 -27.5319 -27.2172 -25.1865 -25.0853
   -24.4921 -24.4869 -24.3187 -23.6252  27.0553  28.7994  29.6765  29.9935
    31.1187  31.1787  31.8367  32.8352  35.6282  36.3216  36.6362  38.3393
    39.0434  39.5236  40.5156  41.2415  41.9136  49.2608  49.4164  50.5618
    51.0227  53.7398  57.5031

     occupation numbers 
     1.0000   1.0000   1.0000   1.0000   1.0000   1.0000   1.0000   1.0000
     1.0000   1.0000   1.0000   1.0000   1.0000   1.0000   1.0000   1.0000
     1.0000   1.0000   1.0000   1.0000   1.0000   1.0000   1.0000   1.0000
     1.0000   1.0000   1.0000   1.0344  -0.0346  -0.0000  -0.0000  -0.0000
    -0.0000  -0.0000  -0.0000

          k = 0.3139-0.3139 0.4292 (   786 PWs)   bands (ev):

   -65.6614 -64.8989 -64.4303 -28.3872 -27.1508 -26.7541 -25.5559 -25.2399
   -25.0944 -24.5461 -24.4886 -23.6937  28.4505  29.2633  30.0053  30.4667
    31.1660  32.5095  32.8003  34.0647  34.7417  35.2447  35.6854  37.4410
    38.1774  38.8055  39.0637  40.4684  41.2531  48.7608  49.0436  52.3354
    52.8227  53.3260  57.3771

     occupation numbers 
     1.0000   1.0000   1.0000   1.0000   1.0000   1.0000   1.0000   1.0000
     1.0000   1.0000   1.0000   1.0000   1.0000   1.0000   1.0000   1.0000
     1.0000   1.0000   1.0000   1.0000   1.0000   1.0000   1.0000   1.0000
     1.0000   1.0000   1.0000   1.0000   1.0351  -0.0000  -0.0000  -0.0000
    -0.0000  -0.0000  -0.0000

          k = 0.2313-0.2313 0.3632 (   799 PWs)   bands (ev):

   -65.5439 -65.0227 -64.4299 -28.2705 -26.5506 -26.2838 -26.0421 -26.0011
   -25.0381 -24.6429 -24.4932 -23.7183  28.5242  29.3261  29.9491  30.6489
    30.8409  32.4688  33.9992  34.1855  34.7858  35.6029  36.1460  36.7619
    37.1357  38.7647  38.8358  40.4764  41.0097  47.5056  48.3512  52.6376
    55.0181  55.4576  56.4875

     occupation numbers 
     1.0000   1.0000   1.0000   1.0000   1.0000   1.0000   1.0000   1.0000
     1.0000   1.0000   1.0000   1.0000   1.0000   1.0000   1.0000   1.0000
     1.0000   1.0000   1.0000   1.0000   1.0000   1.0000   1.0000   1.0000
     1.0000   1.0000   1.0000   1.0000   1.0045  -0.0000  -0.0000  -0.0000
    -0.0000  -0.0000  -0.0000

          k = 0.1486-0.1486 0.2972 (   785 PWs)   bands (ev):

   -65.6936 -64.8681 -64.4315 -28.3691 -27.1387 -26.7209 -25.5718 -25.2350
   -24.9407 -24.7071 -24.4809 -23.6875  26.9641  29.3191  29.6304  30.2766
    30.6424  31.6599  32.5244  33.9267  34.9480  36.5055  37.5193  37.8128
    38.3495  39.2975  40.5119  40.7717  40.8388  45.9895  47.8591  52.6314
    55.2301  55.5402  57.6525

     occupation numbers 
     1.0000   1.0000   1.0000   1.0000   1.0000   1.0000   1.0000   1.0000
     1.0000   1.0000   1.0000   1.0000   1.0000   1.0000   1.0000   1.0000
     1.0000   1.0000   1.0000   1.0000   1.0000   1.0000   1.0000   1.0000
     1.0000   1.0000   1.0000   1.0001   1.0003  -0.0000  -0.0000  -0.0000
    -0.0000  -0.0000  -0.0000

          k = 0.0660-0.0660 0.2313 (   785 PWs)   bands (ev):

   -65.9017 -64.6476 -64.4347 -28.7369 -27.5150 -27.1968 -25.1052 -24.9752
   -24.6569 -24.4769 -24.3425 -23.6173  25.6989  28.4419  29.5286  29.7473
    30.2820  30.6018  31.2705  32.9401  35.9990  37.4195  38.5219  39.0688
    39.8848  40.4138  40.5882  40.8797  43.5937  44.8433  47.1001  52.6551
    54.3513  55.5329  58.6720

     occupation numbers 
     1.0000   1.0000   1.0000   1.0000   1.0000   1.0000   1.0000   1.0000
     1.0000   1.0000   1.0000   1.0000   1.0000   1.0000   1.0000   1.0000
     1.0000   1.0000   1.0000   1.0000   1.0000   1.0000   1.0000   1.0000
     1.0000   1.0000   1.0000   1.0006  -0.0000  -0.0000  -0.0000  -0.0000
    -0.0000  -0.0000  -0.0000

          k =-0.1159 0.2645 0.1159 (   786 PWs)   bands (ev):

   -66.0183 -64.4991 -64.4518 -29.1747 -27.6249 -27.5114 -25.2655 -24.7913
   -24.4934 -24.3755 -23.7066 -23.5164  26.3337  28.0888  29.5148  29.7865
    29.9307  31.1065  31.6268  31.8627  36.7628  37.0065  37.6794  38.5736
    39.2439  40.2337  40.4883  42.9018  44.1667  46.6100  47.9093  50.0650
    51.8458  55.0388  55.2160

     occupation numbers 
     1.0000   1.0000   1.0000   1.0000   1.0000   1.0000   1.0000   1.0000
     1.0000   1.0000   1.0000   1.0000   1.0000   1.0000   1.0000   1.0000
     1.0000   1.0000   1.0000   1.0000   1.0000   1.0000   1.0000   1.0000
     1.0000   1.0000   1.0000  -0.0000  -0.0000  -0.0000  -0.0000  -0.0000
    -0.0000  -0.0000  -0.0000

          k =-0.1986 0.3472 0.0499 (   789 PWs)   bands (ev):

   -65.9066 -64.6189 -64.4497 -28.8917 -27.6082 -27.2937 -25.2957 -24.9915
   -24.5217 -24.3595 -24.0811 -23.6194  27.3194  28.6850  29.9560  30.0381
    30.7029  31.4634  32.1554  32.6462  35.5667  36.0874  37.1689  38.3115
    38.8936  39.6522  40.3020  41.5571  42.5381  47.0618  47.6858  50.4900
    51.5134  53.6669  57.3604

     occupation numbers 
     1.0000   1.0000   1.0000   1.0000   1.0000   1.0000   1.0000   1.0000
     1.0000   1.0000   1.0000   1.0000   1.0000   1.0000   1.0000   1.0000
     1.0000   1.0000   1.0000   1.0000   1.0000   1.0000   1.0000   1.0000
     1.0000   1.0000   1.0000   0.6291  -0.0000  -0.0000  -0.0000  -0.0000
    -0.0000  -0.0000  -0.0000

          k = 0.3799-0.2313 0.5118 (   787 PWs)   bands (ev):

   -65.7181 -64.8217 -64.4458 -28.4353 -27.4929 -26.8531 -25.4675 -25.2568
   -24.6987 -24.5459 -24.3749 -23.7566  28.5639  29.2537  30.2243  30.6415
    31.8497  31.9281  32.6902  33.8392  34.2855  35.1217  36.4584  37.3971
    38.3344  39.1340  40.0749  40.2359  41.0170  45.9067  48.7273  51.1134
    52.7370  53.1703  57.9633

     occupation numbers 
     1.0000   1.0000   1.0000   1.0000   1.0000   1.0000   1.0000   1.0000
     1.0000   1.0000   1.0000   1.0000   1.0000   1.0000   1.0000   1.0000
     1.0000   1.0000   1.0000   1.0000   1.0000   1.0000   1.0000   1.0000
     1.0000   1.0000   1.0000   1.0000   1.0050  -0.0000  -0.0000  -0.0000
    -0.0000  -0.0000  -0.0000

          k = 0.2972-0.1486 0.4459 (   796 PWs)   bands (ev):

   -65.5251 -65.0259 -64.4436 -28.1577 -27.0334 -26.2777 -26.1702 -25.3988
   -25.1483 -24.6187 -24.4147 -23.8327  29.3064  29.4428  30.2457  30.9403
    31.2125  32.8384  33.4064  34.1214  34.9156  35.1056  35.6775  36.7496
    37.1046  39.0170  39.7646  40.0462  40.5567  44.8692  49.1492  50.8736
    54.1604  54.9932  57.7078

     occupation numbers 
     1.0000   1.0000   1.0000   1.0000   1.0000   1.0000   1.0000   1.0000
     1.0000   1.0000   1.0000   1.0000   1.0000   1.0000   1.0000   1.0000
     1.0000   1.0000   1.0000   1.0000   1.0000   1.0000   1.0000   1.0000
     1.0000   1.0000   1.0000   1.0000   1.0000  -0.0000  -0.0000  -0.0000
    -0.0000  -0.0000  -0.0000

          k = 0.2146-0.0660 0.3799 (   790 PWs)   bands (ev):

   -65.5562 -64.9979 -64.4421 -28.1468 -26.9975 -26.2461 -26.1937 -25.4122
   -25.0165 -24.7052 -24.4362 -23.8316  27.9697  29.7159  30.0076  30.7126
    31.0538  32.2902  33.1427  33.8530  35.0648  35.9956  36.3412  37.0544
    37.5052  39.0831  40.0324  40.0780  41.8008  43.9017  49.0400  50.6047
    55.2678  57.0387  57.2623

     occupation numbers 
     1.0000   1.0000   1.0000   1.0000   1.0000   1.0000   1.0000   1.0000
     1.0000   1.0000   1.0000   1.0000   1.0000   1.0000   1.0000   1.0000
     1.0000   1.0000   1.0000   1.0000   1.0000   1.0000   1.0000   1.0000
     1.0000   1.0000   1.0000   1.0000   0.0266  -0.0000  -0.0000  -0.0000
    -0.0000  -0.0000  -0.0000

          k = 0.1320 0.0166 0.3139 (   789 PWs)   bands (ev):

   -65.7616 -64.7881 -64.4404 -28.4094 -27.4736 -26.8296 -25.4864 -24.9712
   -24.7450 -24.6973 -24.4476 -23.7523  26.6756  29.2226  29.8249  30.1638
    30.5822  31.3260  31.9640  33.6282  35.0636  37.1378  37.4335  38.3120
    38.3997  39.6303  40.2093  40.4791  43.1556  44.4519  48.4422  50.7949
    54.2788  56.5700  58.5643

     occupation numbers 
     1.0000   1.0000   1.0000   1.0000   1.0000   1.0000   1.0000   1.0000
     1.0000   1.0000   1.0000   1.0000   1.0000   1.0000   1.0000   1.0000
     1.0000   1.0000   1.0000   1.0000   1.0000   1.0000   1.0000   1.0000
     1.0000   1.0000   1.0000   1.0000  -0.0000  -0.0000  -0.0000  -0.0000
    -0.0000  -0.0000  -0.0000

          k =-0.1326 0.4298 0.1326 (   792 PWs)   bands (ev):

   -65.8477 -64.6648 -64.4643 -28.7929 -27.5497 -27.2126 -25.3549 -25.0712
   -24.5537 -24.3315 -24.2914 -23.5992  27.9509  28.9293  30.1573  30.5437
    31.0342  31.8365  32.6796  33.0421  35.4381  35.4618  37.5265  37.7239
    38.2701  39.4855  40.2405  40.8940  42.1732  44.6491  46.9213  49.8560
    52.1590  55.2468  56.6150

     occupation numbers 
     1.0000   1.0000   1.0000   1.0000   1.0000   1.0000   1.0000   1.0000
     1.0000   1.0000   1.0000   1.0000   1.0000   1.0000   1.0000   1.0000
     1.0000   1.0000   1.0000   1.0000   1.0000   1.0000   1.0000   1.0000
     1.0000   1.0000   1.0000   1.0008  -0.0055  -0.0000  -0.0000  -0.0000
    -0.0000  -0.0000  -0.0000

          k = 0.4459-0.1486 0.5945 (   788 PWs)   bands (ev):

   -65.7058 -64.8141 -64.4640 -28.4582 -27.4937 -26.8528 -25.4589 -25.3317
   -24.6992 -24.5834 -24.2749 -23.7409  28.8607  29.2851  30.5522  31.0635
    31.7300  32.5309  33.0732  33.7962  34.6813  34.7745  36.9145  37.4545
    37.5704  39.3033  39.9196  40.1005  41.1541  42.9848  47.4929  49.4657
    53.5284  54.6430  57.7632

     occupation numbers 
     1.0000   1.0000   1.0000   1.0000   1.0000   1.0000   1.0000   1.0000
     1.0000   1.0000   1.0000   1.0000   1.0000   1.0000   1.0000   1.0000
     1.0000   1.0000   1.0000   1.0000   1.0000   1.0000   1.0000   1.0000
     1.0000   1.0000   1.0000   1.0000   1.0214  -0.0000  -0.0000  -0.0000
    -0.0000  -0.0000  -0.0000

          k = 0.3632-0.0660 0.5285 (   792 PWs)   bands (ev):

   -65.5095 -65.0222 -64.4611 -27.9499 -27.4484 -26.2659 -26.1850 -25.2433
   -25.0114 -24.6349 -24.3164 -23.9952  29.4982  29.8025  30.9506  31.5268
    31.9339  32.3941  33.2798  33.8059  34.4357  35.6127  35.8292  36.3507
    37.0838  39.0559  39.7111  40.1062  40.9308  42.0990  48.3714  49.8593
    53.8787  54.9822  58.1019

     occupation numbers 
     1.0000   1.0000   1.0000   1.0000   1.0000   1.0000   1.0000   1.0000
     1.0000   1.0000   1.0000   1.0000   1.0000   1.0000   1.0000   1.0000
     1.0000   1.0000   1.0000   1.0000   1.0000   1.0000   1.0000   1.0000
     1.0000   1.0000   1.0000   1.0000   1.0014  -0.0131  -0.0000  -0.0000
    -0.0000  -0.0000  -0.0000

          k = 0.2806 0.0166 0.4625 (   801 PWs)   bands (ev):

   -65.3810 -65.1614 -64.4558 -27.6895 -27.0348 -26.9436 -25.7465 -25.4054
   -25.1005 -24.7122 -24.3814 -24.1127  29.1860  29.7785  30.7645  31.5108
    31.7313  32.7070  33.2363  33.5713  34.4368  35.0781  35.6802  36.9047
    37.5668  38.7633  39.4449  39.5390  41.6306  42.8671  48.8801  50.7403
    54.0921  56.0080  57.4026

     occupation numbers 
     1.0000   1.0000   1.0000   1.0000   1.0000   1.0000   1.0000   1.0000
     1.0000   1.0000   1.0000   1.0000   1.0000   1.0000   1.0000   1.0000
     1.0000   1.0000   1.0000   1.0000   1.0000   1.0000   1.0000   1.0000
     1.0000   1.0000   1.0000   1.0000   0.4031  -0.0000  -0.0000  -0.0000
    -0.0000  -0.0000  -0.0000

          k = 0.1980 0.0993 0.3965 (   792 PWs)   bands (ev):

   -65.5589 -64.9914 -64.4459 -27.9146 -27.4333 -26.2390 -26.2108 -25.0444
   -24.9605 -24.7820 -24.4234 -23.9949  28.0536  29.7791  30.1913  30.9901
    31.1881  32.1567  32.7116  33.8691  34.8134  35.9577  36.1736  37.1688
    37.4046  38.7185  39.8368  40.2795  41.2208  45.4704  49.3423  50.6004
    54.5084  56.5669  57.1278

     occupation numbers 
     1.0000   1.0000   1.0000   1.0000   1.0000   1.0000   1.0000   1.0000
     1.0000   1.0000   1.0000   1.0000   1.0000   1.0000   1.0000   1.0000
     1.0000   1.0000   1.0000   1.0000   1.0000   1.0000   1.0000   1.0000
     1.0000   1.0000   1.0000   1.0000   1.0321  -0.0000  -0.0000  -0.0000
    -0.0000  -0.0000  -0.0000

          k =-0.0160-0.7271 0.0160 (   797 PWs)   bands (ev):

   -65.6277 -64.8907 -64.4683 -28.4366 -27.1626 -26.7536 -25.5409 -25.3522
   -25.2174 -24.6242 -24.2550 -23.6661  29.2280  29.4568  30.4637  31.5259
    32.4930  33.0340  33.1141  34.1533  34.4077  35.2417  36.6524  36.9436
    37.3786  39.2433  39.2490  40.1466  40.8320  41.1347  47.2265  48.3520
    54.3076  56.4868  57.1105

     occupation numbers 
     1.0000   1.0000   1.0000   1.0000   1.0000   1.0000   1.0000   1.0000
     1.0000   1.0000   1.0000   1.0000   1.0000   1.0000   1.0000   1.0000
     1.0000   1.0000   1.0000   1.0000   1.0000   1.0000   1.0000   1.0000
     1.0000   1.0000   1.0000   1.0000   1.0002   1.0183  -0.0000  -0.0000
    -0.0000  -0.0000  -0.0000

          k =-0.0987-0.6444-0.0499 (   796 PWs)   bands (ev):

   -65.5007 -65.0252 -64.4661 -28.1989 -27.0248 -26.2780 -26.1629 -25.3858
   -25.2631 -24.6679 -24.2861 -23.8139  29.2729  30.1295  30.7661  31.5243
    32.3703  32.8553  33.4915  33.9363  34.7745  35.6891  35.8491  36.2230
    37.2580  38.1411  39.6703  39.9229  40.8126  41.7076  47.5077  48.3309
    55.1255  55.7897  58.1172

     occupation numbers 
     1.0000   1.0000   1.0000   1.0000   1.0000   1.0000   1.0000   1.0000
     1.0000   1.0000   1.0000   1.0000   1.0000   1.0000   1.0000   1.0000
     1.0000   1.0000   1.0000   1.0000   1.0000   1.0000   1.0000   1.0000
     1.0000   1.0000   1.0000   1.0000   1.0002   0.1907  -0.0000  -0.0000
    -0.0000  -0.0000  -0.0000

          k =-0.1813-0.5618-0.1159 (   798 PWs)   bands (ev):

   -65.3631 -65.1734 -64.4608 -27.7119 -27.0334 -26.9336 -25.7526 -25.3919
   -25.1276 -24.7241 -24.3487 -24.1022  29.2100  30.2830  31.1192  31.6452
    31.7978  32.4709  33.2347  33.9365  34.5801  34.6019  35.6372  36.8370
    37.3784  38.6434  39.1783  39.5694  40.7812  43.7632  47.8145  50.1014
    54.8199  55.6145  57.7201

     occupation numbers 
     1.0000   1.0000   1.0000   1.0000   1.0000   1.0000   1.0000   1.0000
     1.0000   1.0000   1.0000   1.0000   1.0000   1.0000   1.0000   1.0000
     1.0000   1.0000   1.0000   1.0000   1.0000   1.0000   1.0000   1.0000
     1.0000   1.0000   1.0000   1.0000   1.0001  -0.0000  -0.0000  -0.0000
    -0.0000  -0.0000  -0.0000

          k =-0.2639-0.4792-0.1819 (   792 PWs)   bands (ev):

   -65.4005 -65.1501 -64.4483 -27.6445 -27.0239 -26.9701 -25.7214 -25.4253
   -24.9586 -24.8083 -24.4112 -24.1095  29.0159  29.6746  30.5366  31.2929
    31.7041  32.7819  33.0045  33.7843  34.2939  35.1956  35.8085  36.5263
    37.8978  38.0451  39.3974  39.7392  40.8036  45.9635  48.7629  52.5906
    54.2910  54.6359  56.8958

     occupation numbers 
     1.0000   1.0000   1.0000   1.0000   1.0000   1.0000   1.0000   1.0000
     1.0000   1.0000   1.0000   1.0000   1.0000   1.0000   1.0000   1.0000
     1.0000   1.0000   1.0000   1.0000   1.0000   1.0000   1.0000   1.0000
     1.0000   1.0000   1.0000   1.0000   1.0001  -0.0000  -0.0000  -0.0000
    -0.0000  -0.0000  -0.0000

          k =-0.0327-0.5618 0.0327 (   792 PWs)   bands (ev):

   -65.5106 -65.0210 -64.4612 -28.3119 -26.5573 -26.2930 -25.9945 -25.9861
   -25.2241 -24.6912 -24.2976 -23.6965  28.8616  30.4040  30.4867  31.0146
    31.8046  33.1420  33.7102  34.3551  35.3021  35.4423  35.6699  36.3502
    37.4433  37.9635  38.8396  40.1883  41.4599  42.8003  47.1906  47.5467
    55.2793  57.7278  57.9768

     occupation numbers 
     1.0000   1.0000   1.0000   1.0000   1.0000   1.0000   1.0000   1.0000
     1.0000   1.0000   1.0000   1.0000   1.0000   1.0000   1.0000   1.0000
     1.0000   1.0000   1.0000   1.0000   1.0000   1.0000   1.0000   1.0000
     1.0000   1.0000   1.0000   1.0000   0.8766  -0.0000  -0.0000  -0.0000
    -0.0000  -0.0000  -0.0000

          k =-0.1153-0.4792-0.0333 (   796 PWs)   bands (ev):

   -65.5374 -65.0017 -64.4554 -28.1749 -27.0015 -26.2493 -26.1907 -25.4148
   -25.1181 -24.7238 -24.3509 -23.8180  28.3912  30.2238  30.4806  31.0673
    31.1094  32.5951  33.3251  33.8752  34.9860  35.5787  36.2180  36.7596
    37.3396  38.6403  39.2960  39.9891  41.8634  44.3575  47.4541  48.4660
    55.1400  57.3486  58.3840

     occupation numbers 
     1.0000   1.0000   1.0000   1.0000   1.0000   1.0000   1.0000   1.0000
     1.0000   1.0000   1.0000   1.0000   1.0000   1.0000   1.0000   1.0000
     1.0000   1.0000   1.0000   1.0000   1.0000   1.0000   1.0000   1.0000
     1.0000   1.0000   1.0000   1.0000  -0.0218  -0.0000  -0.0000  -0.0000
    -0.0000  -0.0000  -0.0000

          k =-0.0493-0.3965 0.0493 (   789 PWs)   bands (ev):

   -65.6800 -64.8643 -64.4472 -28.3864 -27.1385 -26.7232 -25.5640 -25.2409
   -25.0575 -24.7177 -24.3833 -23.6822  27.3755  29.6963  30.0480  30.4116
    30.7996  31.9156  32.7556  33.7889  34.7803  36.4073  37.1595  37.7102
    38.0872  39.1603  39.4423  40.3492  43.2422  44.3628  47.6386  48.5404
    54.5969  58.4502  58.6652

     occupation numbers 
     1.0000   1.0000   1.0000   1.0000   1.0000   1.0000   1.0000   1.0000
     1.0000   1.0000   1.0000   1.0000   1.0000   1.0000   1.0000   1.0000
     1.0000   1.0000   1.0000   1.0000   1.0000   1.0000   1.0000   1.0000
     1.0000   1.0000   1.0000   1.0000  -0.0000  -0.0000  -0.0000  -0.0000
    -0.0000  -0.0000  -0.0000

          k =-0.1986 0.1986 0.1986 (   792 PWs)   bands (ev):

   -66.0588 -64.4520 -64.4520 -29.3491 -27.6367 -27.6367 -25.3901 -24.6873
   -24.3844 -24.3844 -23.4839 -23.4839  26.5638  27.9436  29.6684  29.6684
    29.7182  31.3693  31.6948  31.6948  36.9261  36.9261  37.9663  37.9663
    39.1937  40.5437  40.5437  43.9270  45.0189  45.9000  45.9000  50.7296
    52.9101  53.1344  53.1344

     occupation numbers 
     1.0000   1.0000   1.0000   1.0000   1.0000   1.0000   1.0000   1.0000
     1.0000   1.0000   1.0000   1.0000   1.0000   1.0000   1.0000   1.0000
     1.0000   1.0000   1.0000   1.0000   1.0000   1.0000   1.0000   1.0000
     1.0000   1.0000   1.0000  -0.0000  -0.0000  -0.0000  -0.0000  -0.0000
    -0.0000  -0.0000  -0.0000

          k =-0.2812 0.2812 0.1326 (   792 PWs)   bands (ev):

   -65.9944 -64.5208 -64.4503 -29.1997 -27.6326 -27.5346 -25.4402 -24.7759
   -24.3944 -24.3586 -23.6944 -23.5232  27.1572  28.5303  29.7842  30.0465
    30.1248  31.5400  32.0236  32.4101  35.8411  36.7739  37.2338  38.4266
    38.8639  40.1321  40.4512  42.8904  42.9718  46.1657  46.4615  50.2391
    51.2962  52.6195  56.0476

     occupation numbers 
     1.0000   1.0000   1.0000   1.0000   1.0000   1.0000   1.0000   1.0000
     1.0000   1.0000   1.0000   1.0000   1.0000   1.0000   1.0000   1.0000
     1.0000   1.0000   1.0000   1.0000   1.0000   1.0000   1.0000   1.0000
     1.0000   1.0000   1.0000  -0.0000  -0.0000  -0.0000  -0.0000  -0.0000
    -0.0000  -0.0000  -0.0000

          k = 0.2972-0.2972 0.5945 (   795 PWs)   bands (ev):

   -65.8386 -64.6897 -64.4476 -28.8029 -27.5522 -27.2404 -25.4213 -25.0678
   -24.4036 -24.3946 -24.3057 -23.6095  28.0602  29.3131  29.9358  30.6482
    31.2273  32.0480  32.5197  33.3318  34.3079  36.2196  36.5172  37.8270
    39.0410  39.6034  40.2746  40.6251  41.3049  46.4116  46.6021  49.1620
    52.4137  53.3812  58.4864

     occupation numbers 
     1.0000   1.0000   1.0000   1.0000   1.0000   1.0000   1.0000   1.0000
     1.0000   1.0000   1.0000   1.0000   1.0000   1.0000   1.0000   1.0000
     1.0000   1.0000   1.0000   1.0000   1.0000   1.0000   1.0000   1.0000
     1.0000   1.0000   1.0000   1.0000   1.0316  -0.0000  -0.0000  -0.0000
    -0.0000  -0.0000  -0.0000

          k = 0.2146-0.2146 0.5285 (   794 PWs)   bands (ev):

   -65.6345 -64.9079 -64.4457 -28.4108 -27.1695 -26.7683 -25.5362 -25.3423
   -25.1964 -24.4833 -24.3930 -23.6880  29.0160  29.7423  29.9498  31.0507
    31.6592  32.5135  33.2816  34.0466  34.6538  35.2488  35.7909  36.8391
    38.3465  39.0356  39.8981  40.0164  40.5283  45.3571  47.1071  48.4972
    54.9364  55.0317  59.1127

     occupation numbers 
     1.0000   1.0000   1.0000   1.0000   1.0000   1.0000   1.0000   1.0000
     1.0000   1.0000   1.0000   1.0000   1.0000   1.0000   1.0000   1.0000
     1.0000   1.0000   1.0000   1.0000   1.0000   1.0000   1.0000   1.0000
     1.0000   1.0000   1.0000   1.0000   1.0000  -0.0000  -0.0000  -0.0000
    -0.0000  -0.0000  -0.0000

          k = 0.1320-0.1320 0.4625 (   787 PWs)   bands (ev):

   -65.5282 -65.0207 -64.4455 -28.2861 -26.5450 -26.2878 -26.0091 -25.9877
   -25.1676 -24.6161 -24.3896 -23.7065  28.5416  29.9540  30.1845  30.9091
    30.9787  32.6113  33.9203  34.1881  35.1433  35.5966  36.3016  36.5679
    36.6941  38.8462  39.5627  40.3781  41.7571  44.0850  47.5489  48.3400
    56.5389  57.3568  58.0264

     occupation numbers 
     1.0000   1.0000   1.0000   1.0000   1.0000   1.0000   1.0000   1.0000
     1.0000   1.0000   1.0000   1.0000   1.0000   1.0000   1.0000   1.0000
     1.0000   1.0000   1.0000   1.0000   1.0000   1.0000   1.0000   1.0000
     1.0000   1.0000   1.0000   1.0000   0.0890  -0.0000  -0.0000  -0.0000
    -0.0000  -0.0000  -0.0000

          k =-0.2152 0.3638 0.2152 (   784 PWs)   bands (ev):

   -65.9830 -64.5147 -64.4657 -29.2006 -27.6300 -27.5309 -25.5174 -24.7588
   -24.3849 -24.2973 -23.7031 -23.5135  27.2684  29.0484  29.9242  30.0725
    30.2206  31.7526  32.3097  32.5472  36.1732  36.4750  37.6350  38.0557
    38.6337  40.1984  40.3610  42.5324  42.9075  44.8218  45.4620  48.7626
    51.6570  54.2972  55.0657

     occupation numbers 
     1.0000   1.0000   1.0000   1.0000   1.0000   1.0000   1.0000   1.0000
     1.0000   1.0000   1.0000   1.0000   1.0000   1.0000   1.0000   1.0000
     1.0000   1.0000   1.0000   1.0000   1.0000   1.0000   1.0000   1.0000
     1.0000   1.0000   1.0000  -0.0000  -0.0000  -0.0000  -0.0000  -0.0000
    -0.0000  -0.0000  -0.0000

          k = 0.3632-0.2146 0.6771 (   795 PWs)   bands (ev):

   -65.8751 -64.6332 -64.4627 -28.9198 -27.6208 -27.3170 -25.5190 -24.9735
   -24.4184 -24.2895 -24.0789 -23.6202  27.8061  29.7276  30.1142  30.5093
    30.9111  32.2128  32.6219  33.0214  35.4690  36.0721  37.2435  37.9244
    38.4637  40.0695  40.1159  40.9147  41.5497  43.9192  46.0168  47.7590
    52.6830  54.4626  57.0182

     occupation numbers 
     1.0000   1.0000   1.0000   1.0000   1.0000   1.0000   1.0000   1.0000
     1.0000   1.0000   1.0000   1.0000   1.0000   1.0000   1.0000   1.0000
     1.0000   1.0000   1.0000   1.0000   1.0000   1.0000   1.0000   1.0000
     1.0000   1.0000   1.0000   1.0011   0.6511  -0.0000  -0.0000  -0.0000
    -0.0000  -0.0000  -0.0000

          k = 0.2806-0.1320 0.6111 (   802 PWs)   bands (ev):

   -65.6930 -64.8310 -64.4592 -28.4642 -27.5092 -26.8756 -25.4605 -25.4220
   -24.6954 -24.4771 -24.3287 -23.7588  28.7095  29.9172  30.3504  31.3467
    31.7708  32.2996  33.0356  33.7438  34.7525  35.5550  36.5586  37.0591
    38.0473  39.2436  40.0169  40.2967  40.7662  43.1866  46.6745  47.4628
    53.6402  55.9162  58.7540

     occupation numbers 
     1.0000   1.0000   1.0000   1.0000   1.0000   1.0000   1.0000   1.0000
     1.0000   1.0000   1.0000   1.0000   1.0000   1.0000   1.0000   1.0000
     1.0000   1.0000   1.0000   1.0000   1.0000   1.0000   1.0000   1.0000
     1.0000   1.0000   1.0000   1.0000   1.0001  -0.0000  -0.0000  -0.0000
    -0.0000  -0.0000  -0.0000

          k = 0.1980-0.0493 0.5451 (   793 PWs)   bands (ev):

   -65.5059 -65.0297 -64.4571 -28.1807 -27.0282 -26.2806 -26.1582 -25.3878
   -25.2639 -24.5923 -24.3439 -23.8229  29.2008  29.9497  30.5068  31.3678
    31.6462  32.7666  33.7600  33.8806  35.1209  35.4015  35.8798  36.5150
    36.8883  38.7938  39.3109  39.9811  42.2174  42.4947  46.8870  48.0655
    55.0925  57.6087  57.9744

     occupation numbers 
     1.0000   1.0000   1.0000   1.0000   1.0000   1.0000   1.0000   1.0000
     1.0000   1.0000   1.0000   1.0000   1.0000   1.0000   1.0000   1.0000
     1.0000   1.0000   1.0000   1.0000   1.0000   1.0000   1.0000   1.0000
     1.0000   1.0000   1.0000   1.0000  -0.0030  -0.0000  -0.0000  -0.0000
    -0.0000  -0.0000  -0.0000

          k =-0.0987-0.7930 0.0987 (   798 PWs)   bands (ev):

   -65.8215 -64.6822 -64.4697 -28.8170 -27.5623 -27.2388 -25.5244 -25.0508
   -24.4503 -24.3277 -24.2656 -23.5982  28.0242  29.7919  30.4432  31.0536
    31.0884  32.5210  32.7732  33.1585  35.5579  36.2961  37.5371  37.7471
    37.8309  39.9503  40.1825  40.4644  41.0032  42.1718  45.9486  46.7116
    53.9073  55.8231  56.2190

     occupation numbers 
     1.0000   1.0000   1.0000   1.0000   1.0000   1.0000   1.0000   1.0000
     1.0000   1.0000   1.0000   1.0000   1.0000   1.0000   1.0000   1.0000
     1.0000   1.0000   1.0000   1.0000   1.0000   1.0000   1.0000   1.0000
     1.0000   1.0000   1.0000   1.0000   1.0041  -0.0056  -0.0000  -0.0000
    -0.0000  -0.0000  -0.0000

          k =-0.1813-0.7104 0.0327 (   805 PWs)   bands (ev):

   -65.6878 -64.8279 -64.4668 -28.4777 -27.5118 -26.8761 -25.4585 -25.4481
   -24.6953 -24.4984 -24.2950 -23.7516  28.6921  29.8916  30.6754  31.4192
    31.7406  32.6130  33.0752  33.7915  34.7123  35.9753  36.8637  37.4285
    37.7655  38.3872  40.0190  40.6037  41.1583  41.5986  46.0775  46.9466
    54.1244  56.6395  57.8442

     occupation numbers 
     1.0000   1.0000   1.0000   1.0000   1.0000   1.0000   1.0000   1.0000
     1.0000   1.0000   1.0000   1.0000   1.0000   1.0000   1.0000   1.0000
     1.0000   1.0000   1.0000   1.0000   1.0000   1.0000   1.0000   1.0000
     1.0000   1.0000   1.0000   1.0000   1.0221   0.5018  -0.0000  -0.0000
    -0.0000  -0.0000  -0.0000

          k =-0.2639-0.6278-0.0333 (   804 PWs)   bands (ev):

   -65.4990 -65.0289 -64.4645 -27.9628 -27.4590 -26.2750 -26.1821 -25.3079
   -25.0176 -24.5968 -24.3265 -23.9998  29.6301  29.6868  31.0896  31.7395
    32.1144  32.1884  33.4441  33.7029  35.1646  35.2013  35.9134  36.5713
    37.2384  38.1498  39.6551  40.3747  40.9126  42.5498  46.4178  48.6531
    53.8804  57.8890  57.9794

     occupation numbers 
     1.0000   1.0000   1.0000   1.0000   1.0000   1.0000   1.0000   1.0000
     1.0000   1.0000   1.0000   1.0000   1.0000   1.0000   1.0000   1.0000
     1.0000   1.0000   1.0000   1.0000   1.0000   1.0000   1.0000   1.0000
     1.0000   1.0000   1.0000   1.0000   1.0010  -0.0000  -0.0000  -0.0000
    -0.0000  -0.0000  -0.0000

          k =-0.1153-0.6278 0.1153 (   792 PWs)   bands (ev):

   -65.6201 -64.9046 -64.4614 -28.4309 -27.1695 -26.7673 -25.5268 -25.3938
   -25.2096 -24.5253 -24.3062 -23.6686  28.9647  29.7950  30.4431  31.5844
    32.2142  32.3912  33.7543  33.8361  34.5709  35.6687  36.7097  36.7624
    38.0860  38.3306  39.1590  40.2316  41.5455  42.3960  45.9998  46.7226
    55.9766  56.2944  57.7460

     occupation numbers 
     1.0000   1.0000   1.0000   1.0000   1.0000   1.0000   1.0000   1.0000
     1.0000   1.0000   1.0000   1.0000   1.0000   1.0000   1.0000   1.0000
     1.0000   1.0000   1.0000   1.0000   1.0000   1.0000   1.0000   1.0000
     1.0000   1.0000   1.0000   1.0000   0.6634  -0.0001  -0.0000  -0.0000
    -0.0000  -0.0000  -0.0000

          k =-0.2978 0.2978 0.2978 (   785 PWs)   bands (ev):

   -66.0251 -64.4659 -64.4659 -29.3770 -27.6496 -27.6496 -25.6083 -24.6553
   -24.2989 -24.2989 -23.4740 -23.4740  26.9524  29.4664  29.7546  29.7546
    30.3373  31.9316  32.2969  32.2969  36.9737  36.9737  37.9044  37.9044
    38.7037  40.4240  40.4240  43.2669  43.2669  43.8251  43.9232  47.6090
    51.2856  54.3765  54.3765

     occupation numbers 
     1.0000   1.0000   1.0000   1.0000   1.0000   1.0000   1.0000   1.0000
     1.0000   1.0000   1.0000   1.0000   1.0000   1.0000   1.0000   1.0000
     1.0000   1.0000   1.0000   1.0000   1.0000   1.0000   1.0000   1.0000
     1.0000   1.0000   1.0000  -0.0000  -0.0000  -0.0000  -0.0000  -0.0000
    -0.0000  -0.0000  -0.0000

          k = 0.2806-0.2806 0.7597 (   789 PWs)   bands (ev):

   -65.9661 -64.5301 -64.4647 -29.2153 -27.6375 -27.5452 -25.6317 -24.7506
   -24.3093 -24.3000 -23.6917 -23.5232  27.1958  29.8016  30.1086  30.1327
    30.6371  32.1511  32.3896  32.6008  36.7627  37.1662  37.1815  38.3053
    38.6410  40.3007  40.3201  41.5629  41.7386  43.9823  44.5221  46.3698
    51.9026  54.4302  55.7546

     occupation numbers 
     1.0000   1.0000   1.0000   1.0000   1.0000   1.0000   1.0000   1.0000
     1.0000   1.0000   1.0000   1.0000   1.0000   1.0000   1.0000   1.0000
     1.0000   1.0000   1.0000   1.0000   1.0000   1.0000   1.0000   1.0000
     1.0000   1.0000   1.0000   0.6119   0.1231  -0.0000  -0.0000  -0.0000
    -0.0000  -0.0000  -0.0000

          k = 0.1980-0.1980 0.6938 (   804 PWs)   bands (ev):

   -65.8178 -64.6925 -64.4629 -28.8197 -27.5668 -27.2493 -25.5649 -25.0533
   -24.3894 -24.3162 -24.3142 -23.6066  27.9508  29.8986  30.5899  31.0732
    31.1258  32.4546  32.8465  32.8719  35.6743  36.7342  36.8510  37.4587
    38.7736  39.9260  39.9745  40.3906  40.6181  43.5103  45.4929  45.6916
    53.6453  55.0470  57.4752

     occupation numbers 
     1.0000   1.0000   1.0000   1.0000   1.0000   1.0000   1.0000   1.0000
     1.0000   1.0000   1.0000   1.0000   1.0000   1.0000   1.0000   1.0000
     1.0000   1.0000   1.0000   1.0000   1.0000   1.0000   1.0000   1.0000
     1.0000   1.0000   1.0000   1.0000   1.0000  -0.0000  -0.0000  -0.0000
    -0.0000  -0.0000  -0.0000

          k =-0.1813-0.8590 0.1813 (   791 PWs)   bands (ev):

   -65.9615 -64.5276 -64.4711 -29.2186 -27.6408 -27.5451 -25.6707 -24.7436
   -24.3186 -24.2645 -23.6950 -23.5259  27.1570  29.8171  30.0942  30.2182
    31.0811  32.0468  32.5117  32.5912  36.9637  37.5305  37.6989  38.3247
    38.3727  40.3323  40.3525  41.1045  41.2897  43.3109  44.4639  45.5111
    52.1533  55.0843  55.2979

     occupation numbers 
     1.0000   1.0000   1.0000   1.0000   1.0000   1.0000   1.0000   1.0000
     1.0000   1.0000   1.0000   1.0000   1.0000   1.0000   1.0000   1.0000
     1.0000   1.0000   1.0000   1.0000   1.0000   1.0000   1.0000   1.0000
     1.0000   1.0000   1.0000   1.0137   1.0341  -0.0000  -0.0000  -0.0000
    -0.0000  -0.0000  -0.0000

          k =-0.2639-0.7764 0.1153 (   802 PWs)   bands (ev):

   -65.8618 -64.6389 -64.4683 -28.9372 -27.6371 -27.3268 -25.6030 -24.9612
   -24.3716 -24.2885 -24.0718 -23.6194  27.6866  30.0036  30.4834  30.9210
    30.9587  32.3598  32.7484  32.8336  36.1500  37.1324  37.3211  38.0411
    38.0416  39.8379  40.2243  40.6526  40.9129  42.7506  45.3306  45.3560
    53.0852  55.4688  56.6089

     occupation numbers 
     1.0000   1.0000   1.0000   1.0000   1.0000   1.0000   1.0000   1.0000
     1.0000   1.0000   1.0000   1.0000   1.0000   1.0000   1.0000   1.0000
     1.0000   1.0000   1.0000   1.0000   1.0000   1.0000   1.0000   1.0000
     1.0000   1.0000   1.0000   1.0000   1.0010  -0.0000  -0.0000  -0.0000
    -0.0000  -0.0000  -0.0000

          k = 0.3971-0.3971-0.3971 (   794 PWs)   bands (ev):

   -66.0116 -64.4716 -64.4716 -29.3844 -27.6544 -27.6544 -25.7277 -24.6356
   -24.2709 -24.2709 -23.4835 -23.4835  26.8507  29.7452  29.7452  29.8958
    31.7721  31.7809  32.2902  32.2902  37.5348  37.5348  38.5091  38.5693
    38.5693  40.4516  40.4516  41.1734  41.1734  43.8126  43.9228  44.9482
    51.4249  54.8687  54.8687

     occupation numbers 
     1.0000   1.0000   1.0000   1.0000   1.0000   1.0000   1.0000   1.0000
     1.0000   1.0000   1.0000   1.0000   1.0000   1.0000   1.0000   1.0000
     1.0000   1.0000   1.0000   1.0000   1.0000   1.0000   1.0000   1.0000
     1.0000   1.0000   1.0000   1.0247   1.0247  -0.0000  -0.0000  -0.0000
    -0.0000  -0.0000  -0.0000

 ------ SPIN DOWN ----------


          k = 0.0000 0.0000 0.0000 (   765 PWs)   bands (ev):

   -66.1061 -64.4327 -64.4327 -29.2965 -27.6054 -27.6054 -25.0283 -24.7174
   -24.5102 -24.5102 -23.4604 -23.4604  24.4872  27.3449  28.6995  29.3598
    29.3598  30.2915  30.2915  32.1084  37.6128  37.6128  39.9307  40.7386
    40.7386  41.1206  41.1206  43.9436  44.8108  44.8108  44.8625  54.4455
    54.4455  56.7551  57.1416

     occupation numbers 
     1.0000   1.0000   1.0000   1.0000   1.0000   1.0000   1.0000   1.0000
     1.0000   1.0000   1.0000   1.0000   1.0000   1.0000   1.0000   1.0000
     1.0000   1.0000   1.0000   1.0000   1.0000   1.0000   1.0000   1.0000
     1.0000   1.0161   1.0161  -0.0000  -0.0000  -0.0000  -0.0000  -0.0000
    -0.0000  -0.0000  -0.0000

          k =-0.0826 0.0826-0.0660 (   779 PWs)   bands (ev):

   -66.0519 -64.4927 -64.4315 -29.1446 -27.6050 -27.5058 -25.0225 -24.8113
   -24.5327 -24.5143 -23.7070 -23.5229  24.8452  27.6640  28.9219  29.4697
    29.7383  30.3078  30.5342  32.2802  37.1947  37.5238  39.5910  40.0994
    40.4126  40.6800  40.9786  42.8046  43.8787  45.5987  46.1614  53.5647
    54.3981  55.8920  57.8156

     occupation numbers 
[...]
     1.0000   1.0000   1.0000   1.0000   1.0000   1.0000   1.0000   1.0000
     1.0000   1.0000   1.0000   1.0000   1.0000   1.0000   1.0000   1.0000
     1.0000   1.0000   1.0000   1.0000  -0.0209  -0.0000  -0.0000  -0.0000
    -0.0000  -0.0000  -0.0000

          k =-0.0493-0.3965 0.0493 (   789 PWs)   bands (ev):

   -65.6807 -64.8650 -64.4479 -28.3873 -27.1390 -26.7235 -25.5641 -25.2418
   -25.0582 -24.7184 -24.3841 -23.6830  27.3732  29.6948  30.0464  30.4100
    30.7984  31.9141  32.7546  33.7881  34.7794  36.4060  37.1589  37.7090
    38.0860  39.1596  39.4415  40.3480  43.2398  44.3609  47.6371  48.5386
    54.5944  58.4481  58.6628

     occupation numbers 
     1.0000   1.0000   1.0000   1.0000   1.0000   1.0000   1.0000   1.0000
     1.0000   1.0000   1.0000   1.0000   1.0000   1.0000   1.0000   1.0000
     1.0000   1.0000   1.0000   1.0000   1.0000   1.0000   1.0000   1.0000
     1.0000   1.0000   1.0000   1.0000  -0.0000  -0.0000  -0.0000  -0.0000
    -0.0000  -0.0000  -0.0000

          k =-0.1986 0.1986 0.1986 (   792 PWs)   bands (ev):

   -66.0595 -64.4527 -64.4527 -29.3502 -27.6369 -27.6369 -25.3909 -24.6873
   -24.3852 -24.3852 -23.4847 -23.4847  26.5619  27.9418  29.6672  29.6672
    29.7162  31.3682  31.6935  31.6935  36.9255  36.9255  37.9655  37.9655
    39.1930  40.5424  40.5424  43.9261  45.0158  45.8982  45.8982  50.7276
    52.9073  53.1324  53.1324

     occupation numbers 
     1.0000   1.0000   1.0000   1.0000   1.0000   1.0000   1.0000   1.0000
     1.0000   1.0000   1.0000   1.0000   1.0000   1.0000   1.0000   1.0000
     1.0000   1.0000   1.0000   1.0000   1.0000   1.0000   1.0000   1.0000
     1.0000   1.0000   1.0000  -0.0000  -0.0000  -0.0000  -0.0000  -0.0000
    -0.0000  -0.0000  -0.0000

          k =-0.2812 0.2812 0.1326 (   792 PWs)   bands (ev):

   -65.9950 -64.5215 -64.4509 -29.2008 -27.6329 -27.5349 -25.4410 -24.7760
   -24.3952 -24.3594 -23.6953 -23.5240  27.1557  28.5281  29.7830  30.0447
    30.1237  31.5386  32.0223  32.4088  35.8398  36.7733  37.2334  38.4257
    38.8631  40.1308  40.4499  42.8893  42.9697  46.1640  46.4590  50.2373
    51.2936  52.6177  56.0453

     occupation numbers 
     1.0000   1.0000   1.0000   1.0000   1.0000   1.0000   1.0000   1.0000
     1.0000   1.0000   1.0000   1.0000   1.0000   1.0000   1.0000   1.0000
     1.0000   1.0000   1.0000   1.0000   1.0000   1.0000   1.0000   1.0000
     1.0000   1.0000   1.0000  -0.0000  -0.0000  -0.0000  -0.0000  -0.0000
    -0.0000  -0.0000  -0.0000

          k = 0.2972-0.2972 0.5945 (   795 PWs)   bands (ev):

   -65.8393 -64.6903 -64.4483 -28.8040 -27.5525 -27.2406 -25.4221 -25.0679
   -24.4043 -24.3953 -24.3066 -23.6104  28.0589  29.3109  29.9344  30.6465
    31.2261  32.0464  32.5184  33.3304  34.3064  36.2192  36.5166  37.8261
    39.0401  39.6020  40.2734  40.6235  41.3040  46.4092  46.6004  49.1601
    52.4113  53.3794  58.4839

     occupation numbers 
     1.0000   1.0000   1.0000   1.0000   1.0000   1.0000   1.0000   1.0000
     1.0000   1.0000   1.0000   1.0000   1.0000   1.0000   1.0000   1.0000
     1.0000   1.0000   1.0000   1.0000   1.0000   1.0000   1.0000   1.0000
     1.0000   1.0000   1.0000   1.0000   1.0318  -0.0000  -0.0000  -0.0000
    -0.0000  -0.0000  -0.0000

          k = 0.2146-0.2146 0.5285 (   794 PWs)   bands (ev):

   -65.6352 -64.9085 -64.4463 -28.4117 -27.1699 -26.7685 -25.5363 -25.3431
   -25.1972 -24.4841 -24.3937 -23.6888  29.0144  29.7403  29.9484  31.0492
    31.6574  32.5121  33.2805  34.0453  34.6527  35.2479  35.7900  36.8381
    38.3452  39.0349  39.8973  40.0150  40.5271  45.3547  47.1055  48.4955
    54.9339  55.0297  59.1106

     occupation numbers 
     1.0000   1.0000   1.0000   1.0000   1.0000   1.0000   1.0000   1.0000
     1.0000   1.0000   1.0000   1.0000   1.0000   1.0000   1.0000   1.0000
     1.0000   1.0000   1.0000   1.0000   1.0000   1.0000   1.0000   1.0000
     1.0000   1.0000   1.0000   1.0000   1.0000  -0.0000  -0.0000  -0.0000
    -0.0000  -0.0000  -0.0000

          k = 0.1320-0.1320 0.4625 (   787 PWs)   bands (ev):

   -65.5288 -65.0213 -64.4462 -28.2868 -26.5455 -26.2879 -26.0094 -25.9887
   -25.1683 -24.6168 -24.3903 -23.7073  28.5394  29.9523  30.1831  30.9079
    30.9771  32.6099  33.9196  34.1870  35.1423  35.5954  36.3001  36.5669
    36.6931  38.8457  39.5620  40.3768  41.7555  44.0826  47.5474  48.3383
    56.5364  57.3548  58.0240

     occupation numbers 
     1.0000   1.0000   1.0000   1.0000   1.0000   1.0000   1.0000   1.0000
     1.0000   1.0000   1.0000   1.0000   1.0000   1.0000   1.0000   1.0000
     1.0000   1.0000   1.0000   1.0000   1.0000   1.0000   1.0000   1.0000
     1.0000   1.0000   1.0000   1.0000   0.0918  -0.0000  -0.0000  -0.0000
    -0.0000  -0.0000  -0.0000

          k =-0.2152 0.3638 0.2152 (   784 PWs)   bands (ev):

   -65.9837 -64.5153 -64.4664 -29.2017 -27.6303 -27.5312 -25.5182 -24.7589
   -24.3856 -24.2980 -23.7040 -23.5143  27.2671  29.0460  29.9230  30.0713
    30.2190  31.7510  32.3084  32.5459  36.1720  36.4744  37.6347  38.0547
    38.6330  40.1970  40.3597  42.5313  42.9053  44.8193  45.4605  48.7609
    51.6545  54.2951  55.0639

     occupation numbers 
     1.0000   1.0000   1.0000   1.0000   1.0000   1.0000   1.0000   1.0000
     1.0000   1.0000   1.0000   1.0000   1.0000   1.0000   1.0000   1.0000
     1.0000   1.0000   1.0000   1.0000   1.0000   1.0000   1.0000   1.0000
     1.0000   1.0000   1.0000  -0.0000  -0.0000  -0.0000  -0.0000  -0.0000
    -0.0000  -0.0000  -0.0000

          k = 0.3632-0.2146 0.6771 (   795 PWs)   bands (ev):

   -65.8757 -64.6338 -64.4634 -28.9208 -27.6211 -27.3173 -25.5198 -24.9736
   -24.4192 -24.2902 -24.0797 -23.6211  27.8048  29.7254  30.1129  30.5079
    30.9097  32.2112  32.6205  33.0201  35.4676  36.0715  37.2432  37.9235
    38.4628  40.0682  40.1145  40.9133  41.5480  43.9170  46.0151  47.7573
    52.6807  54.4607  57.0160

     occupation numbers 
     1.0000   1.0000   1.0000   1.0000   1.0000   1.0000   1.0000   1.0000
     1.0000   1.0000   1.0000   1.0000   1.0000   1.0000   1.0000   1.0000
     1.0000   1.0000   1.0000   1.0000   1.0000   1.0000   1.0000   1.0000
     1.0000   1.0000   1.0000   1.0011   0.6562  -0.0000  -0.0000  -0.0000
    -0.0000  -0.0000  -0.0000

          k = 0.2806-0.1320 0.6111 (   802 PWs)   bands (ev):

   -65.6937 -64.8316 -64.4598 -28.4652 -27.5095 -26.8759 -25.4609 -25.4227
   -24.6961 -24.4778 -24.3294 -23.7596  28.7081  29.9153  30.3489  31.3452
    31.7693  32.2977  33.0342  33.7425  34.7515  35.5540  36.5577  37.0583
    38.0463  39.2426  40.0155  40.2954  40.7648  43.1846  46.6728  47.4610
    53.6381  55.9141  58.7515

     occupation numbers 
     1.0000   1.0000   1.0000   1.0000   1.0000   1.0000   1.0000   1.0000
     1.0000   1.0000   1.0000   1.0000   1.0000   1.0000   1.0000   1.0000
     1.0000   1.0000   1.0000   1.0000   1.0000   1.0000   1.0000   1.0000
     1.0000   1.0000   1.0000   1.0000   1.0001  -0.0000  -0.0000  -0.0000
    -0.0000  -0.0000  -0.0000

          k = 0.1980-0.0493 0.5451 (   793 PWs)   bands (ev):

   -65.5066 -65.0303 -64.4578 -28.1815 -27.0286 -26.2809 -26.1587 -25.3883
   -25.2647 -24.5931 -24.3447 -23.8237  29.1988  29.9481  30.5053  31.3666
    31.6442  32.7652  33.7588  33.8797  35.1199  35.4003  35.8787  36.5137
    36.8874  38.7931  39.3099  39.9798  42.2158  42.4928  46.8854  48.0636
    55.0904  57.6063  57.9722

     occupation numbers 
     1.0000   1.0000   1.0000   1.0000   1.0000   1.0000   1.0000   1.0000
     1.0000   1.0000   1.0000   1.0000   1.0000   1.0000   1.0000   1.0000
     1.0000   1.0000   1.0000   1.0000   1.0000   1.0000   1.0000   1.0000
     1.0000   1.0000   1.0000   1.0000  -0.0031  -0.0000  -0.0000  -0.0000
    -0.0000  -0.0000  -0.0000

          k =-0.0987-0.7930 0.0987 (   798 PWs)   bands (ev):

   -65.8222 -64.6828 -64.4704 -28.8181 -27.5626 -27.2390 -25.5252 -25.0509
   -24.4510 -24.3286 -24.2663 -23.5991  28.0229  29.7901  30.4417  31.0519
    31.0871  32.5194  32.7714  33.1573  35.5572  36.2947  37.5368  37.7464
    37.8300  39.9487  40.1812  40.4634  41.0015  42.1690  45.9472  46.7101
    53.9048  55.8212  56.2167

     occupation numbers 
     1.0000   1.0000   1.0000   1.0000   1.0000   1.0000   1.0000   1.0000
     1.0000   1.0000   1.0000   1.0000   1.0000   1.0000   1.0000   1.0000
     1.0000   1.0000   1.0000   1.0000   1.0000   1.0000   1.0000   1.0000
     1.0000   1.0000   1.0000   1.0000   1.0040  -0.0058  -0.0000  -0.0000
    -0.0000  -0.0000  -0.0000

          k =-0.1813-0.7104 0.0327 (   805 PWs)   bands (ev):

   -65.6885 -64.8285 -64.4675 -28.4787 -27.5121 -26.8764 -25.4590 -25.4487
   -24.6960 -24.4992 -24.2958 -23.7524  28.6907  29.8898  30.6740  31.4178
    31.7390  32.6111  33.0737  33.7904  34.7114  35.9741  36.8628  37.4277
    37.7648  38.3858  40.0178  40.6023  41.1567  41.5965  46.0761  46.9449
    54.1222  56.6373  57.8417

     occupation numbers 
     1.0000   1.0000   1.0000   1.0000   1.0000   1.0000   1.0000   1.0000
     1.0000   1.0000   1.0000   1.0000   1.0000   1.0000   1.0000   1.0000
     1.0000   1.0000   1.0000   1.0000   1.0000   1.0000   1.0000   1.0000
     1.0000   1.0000   1.0000   1.0000   1.0219   0.5084  -0.0000  -0.0000
    -0.0000  -0.0000  -0.0000

          k =-0.2639-0.6278-0.0333 (   804 PWs)   bands (ev):

   -65.4997 -65.0295 -64.4652 -27.9637 -27.4593 -26.2753 -26.1826 -25.3087
   -25.0181 -24.5976 -24.3273 -24.0007  29.6284  29.6849  31.0880  31.7380
    32.1125  32.1872  33.4431  33.7016  35.1636  35.2001  35.9123  36.5702
    37.2374  38.1490  39.6537  40.3729  40.9114  42.5482  46.4163  48.6511
    53.8784  57.8867  57.9772

     occupation numbers 
     1.0000   1.0000   1.0000   1.0000   1.0000   1.0000   1.0000   1.0000
     1.0000   1.0000   1.0000   1.0000   1.0000   1.0000   1.0000   1.0000
     1.0000   1.0000   1.0000   1.0000   1.0000   1.0000   1.0000   1.0000
     1.0000   1.0000   1.0000   1.0000   1.0010  -0.0000  -0.0000  -0.0000
    -0.0000  -0.0000  -0.0000

          k =-0.1153-0.6278 0.1153 (   792 PWs)   bands (ev):

   -65.6208 -64.9052 -64.4620 -28.4317 -27.1699 -26.7675 -25.5270 -25.3946
   -25.2105 -24.5260 -24.3069 -23.6694  28.9631  29.7934  30.4416  31.5829
    32.2123  32.3898  33.7530  33.8351  34.5699  35.6675  36.7089  36.7614
    38.0843  38.3300  39.1584  40.2304  41.5439  42.3936  45.9984  46.7211
    55.9741  56.2925  57.7437

     occupation numbers 
     1.0000   1.0000   1.0000   1.0000   1.0000   1.0000   1.0000   1.0000
     1.0000   1.0000   1.0000   1.0000   1.0000   1.0000   1.0000   1.0000
     1.0000   1.0000   1.0000   1.0000   1.0000   1.0000   1.0000   1.0000
     1.0000   1.0000   1.0000   1.0000   0.6682  -0.0001  -0.0000  -0.0000
    -0.0000  -0.0000  -0.0000

          k =-0.2978 0.2978 0.2978 (   785 PWs)   bands (ev):

   -66.0258 -64.4665 -64.4665 -29.3780 -27.6499 -27.6499 -25.6090 -24.6554
   -24.2997 -24.2997 -23.4749 -23.4749  26.9512  29.4642  29.7535  29.7535
    30.3356  31.9297  32.2957  32.2957  36.9730  36.9730  37.9036  37.9036
    38.7030  40.4227  40.4227  43.2650  43.2650  43.8221  43.9224  47.6071
    51.2831  54.3748  54.3748

     occupation numbers 
     1.0000   1.0000   1.0000   1.0000   1.0000   1.0000   1.0000   1.0000
     1.0000   1.0000   1.0000   1.0000   1.0000   1.0000   1.0000   1.0000
     1.0000   1.0000   1.0000   1.0000   1.0000   1.0000   1.0000   1.0000
     1.0000   1.0000   1.0000  -0.0000  -0.0000  -0.0000  -0.0000  -0.0000
    -0.0000  -0.0000  -0.0000

          k = 0.2806-0.2806 0.7597 (   789 PWs)   bands (ev):

   -65.9668 -64.5308 -64.4653 -29.2164 -27.6378 -27.5454 -25.6325 -24.7507
   -24.3100 -24.3007 -23.6926 -23.5241  27.1946  29.8003  30.1069  30.1315
    30.6352  32.1493  32.3884  32.5993  36.7614  37.1658  37.1811  38.3045
    38.6401  40.2993  40.3188  41.5613  41.7366  43.9794  44.5208  46.3681
    51.9002  54.4285  55.7526

     occupation numbers 
     1.0000   1.0000   1.0000   1.0000   1.0000   1.0000   1.0000   1.0000
     1.0000   1.0000   1.0000   1.0000   1.0000   1.0000   1.0000   1.0000
     1.0000   1.0000   1.0000   1.0000   1.0000   1.0000   1.0000   1.0000
     1.0000   1.0000   1.0000   0.6166   0.1271  -0.0000  -0.0000  -0.0000
    -0.0000  -0.0000  -0.0000

          k = 0.1980-0.1980 0.6938 (   804 PWs)   bands (ev):

   -65.8185 -64.6932 -64.4635 -28.8208 -27.5671 -27.2496 -25.5657 -25.0534
   -24.3902 -24.3170 -24.3150 -23.6074  27.9495  29.8973  30.5880  31.0719
    31.1245  32.4527  32.8448  32.8707  35.6733  36.7333  36.8502  37.4579
    38.7728  39.9242  39.9734  40.3893  40.6167  43.5076  45.4914  45.6902
    53.6430  55.0452  57.4728

     occupation numbers 
     1.0000   1.0000   1.0000   1.0000   1.0000   1.0000   1.0000   1.0000
     1.0000   1.0000   1.0000   1.0000   1.0000   1.0000   1.0000   1.0000
     1.0000   1.0000   1.0000   1.0000   1.0000   1.0000   1.0000   1.0000
     1.0000   1.0000   1.0000   1.0000   1.0000  -0.0000  -0.0000  -0.0000
    -0.0000  -0.0000  -0.0000

          k =-0.1813-0.8590 0.1813 (   791 PWs)   bands (ev):

   -65.9622 -64.5283 -64.4717 -29.2197 -27.6410 -27.5454 -25.6715 -24.7436
   -24.3193 -24.2652 -23.6958 -23.5267  27.1557  29.8158  30.0930  30.2169
    31.0789  32.0451  32.5105  32.5894  36.9633  37.5301  37.6979  38.3240
    38.3718  40.3308  40.3512  41.1024  41.2881  43.3078  44.4627  45.5095
    52.1509  55.0826  55.2960

     occupation numbers 
     1.0000   1.0000   1.0000   1.0000   1.0000   1.0000   1.0000   1.0000
     1.0000   1.0000   1.0000   1.0000   1.0000   1.0000   1.0000   1.0000
     1.0000   1.0000   1.0000   1.0000   1.0000   1.0000   1.0000   1.0000
     1.0000   1.0000   1.0000   1.0135   1.0343  -0.0000  -0.0000  -0.0000
    -0.0000  -0.0000  -0.0000

          k =-0.2639-0.7764 0.1153 (   802 PWs)   bands (ev):

   -65.8625 -64.6396 -64.4690 -28.9382 -27.6373 -27.3271 -25.6038 -24.9612
   -24.3724 -24.2893 -24.0726 -23.6202  27.6853  30.0023  30.4821  30.9190
    30.9573  32.3581  32.7464  32.8324  36.1493  37.1316  37.3202  38.0404
    38.0408  39.8364  40.2230  40.6512  40.9112  42.7480  45.3292  45.3543
    53.0830  55.4669  56.6067

     occupation numbers 
     1.0000   1.0000   1.0000   1.0000   1.0000   1.0000   1.0000   1.0000
     1.0000   1.0000   1.0000   1.0000   1.0000   1.0000   1.0000   1.0000
     1.0000   1.0000   1.0000   1.0000   1.0000   1.0000   1.0000   1.0000
     1.0000   1.0000   1.0000   1.0000   1.0010  -0.0000  -0.0000  -0.0000
    -0.0000  -0.0000  -0.0000

          k = 0.3971-0.3971-0.3971 (   794 PWs)   bands (ev):

   -66.0123 -64.4723 -64.4723 -29.3854 -27.6547 -27.6547 -25.7285 -24.6357
   -24.2717 -24.2717 -23.4843 -23.4843  26.8494  29.7440  29.7440  29.8944
    31.7693  31.7792  32.2890  32.2890  37.5346  37.5346  38.5084  38.5685
    38.5685  40.4503  40.4503  41.1710  41.1710  43.8090  43.9220  44.9468
    51.4227  54.8670  54.8670

     occupation numbers 
     1.0000   1.0000   1.0000   1.0000   1.0000   1.0000   1.0000   1.0000
     1.0000   1.0000   1.0000   1.0000   1.0000   1.0000   1.0000   1.0000
     1.0000   1.0000   1.0000   1.0000   1.0000   1.0000   1.0000   1.0000
     1.0000   1.0000   1.0000   1.0243   1.0243  -0.0000  -0.0000  -0.0000
    -0.0000  -0.0000  -0.0000

     the Fermi energy is    41.5992 ev

!    total energy              =   -1322.55250646 Ry
     total all-electron energy =     -9605.991611 Ry
     estimated scf accuracy    <       0.00000028 Ry
     smearing contrib. (-TS)   =      -0.00029382 Ry
     internal energy E=F+TS    =   -1322.55221263 Ry

     The total energy is F=E-TS. E is the sum of the following terms:
     one-electron contribution =    -408.94843712 Ry
     hartree contribution      =     288.50783133 Ry
     xc contribution           =    -110.68917137 Ry
     ewald contribution        =    -782.87500557 Ry
     one-center paw contrib.   =    -308.54742990 Ry
      -> PAW hartree energy AE =     908.61268307 Ry
      -> PAW hartree energy PS =    -903.65277918 Ry
      -> PAW xc energy AE      =    -424.12024508 Ry
      -> PAW xc energy PS      =     110.61291129 Ry
      -> total E_H with PAW    =     293.46773522 Ry
      -> total E_XC with PAW   =    -424.19650517 Ry

     total magnetization       =    -0.00 Bohr mag/cell
     absolute magnetization    =     0.00 Bohr mag/cell

     convergence has been achieved in  10 iterations

     Writing all to output data dir ./tmp/Ni3Al.save/ :
     XML data file, charge density, pseudopotentials, collected wavefunctions

     init_run     :      2.75s CPU      2.94s WALL (       1 calls)
     electrons    :     88.93s CPU     91.48s WALL (       1 calls)

     Called by init_run:
     wfcinit      :      1.46s CPU      1.50s WALL (       1 calls)
     wfcinit:atom :      0.02s CPU      0.02s WALL (     130 calls)
     wfcinit:wfcr :      1.41s CPU      1.45s WALL (     130 calls)
     potinit      :      0.69s CPU      0.76s WALL (       1 calls)
     hinit0       :      0.52s CPU      0.53s WALL (       1 calls)

     Called by electrons:
     c_bands      :     68.83s CPU     69.23s WALL (      10 calls)
     sum_band     :      9.71s CPU     10.71s WALL (      10 calls)
     v_of_rho     :      0.38s CPU      0.40s WALL (      11 calls)
     v_h          :      0.01s CPU      0.01s WALL (      11 calls)
     v_xc         :      0.38s CPU      0.40s WALL (      11 calls)
     newd         :      1.22s CPU      1.78s WALL (      11 calls)
     PAW_pot      :      9.32s CPU      9.99s WALL (      11 calls)
     mix_rho      :      0.04s CPU      0.04s WALL (      10 calls)

     Called by c_bands:
     init_us_2    :      0.93s CPU      0.94s WALL (    2730 calls)
     cegterg      :     65.93s CPU     66.30s WALL (    1300 calls)

     Called by sum_band:
     sum_band:wei :      0.03s CPU      0.03s WALL (      10 calls)
     sum_band:loo :      7.50s CPU      7.60s WALL (      10 calls)
     sum_band:buf :      0.09s CPU      0.09s WALL (    1300 calls)
     sum_band:ini :      0.45s CPU      0.45s WALL (    1300 calls)
     sum_band:cal :      2.10s CPU      2.13s WALL (    1300 calls)
     sum_band:bec :      0.06s CPU      0.06s WALL (    1300 calls)
     addusdens    :      2.15s CPU      3.04s WALL (      10 calls)
                                        0.00s GPU  (      10 calls)
     addusd:skk   :      0.00s CPU      0.00s WALL (      20 calls)
                                        0.00s GPU  (      20 calls)

     Called by *egterg:
     cdiaghg      :      7.52s CPU      7.56s WALL (    4620 calls)
     cegterg:over :      5.45s CPU      5.47s WALL (    3320 calls)
     cegterg:upda :      4.74s CPU      4.77s WALL (    3320 calls)
     cegterg:last :      7.62s CPU      7.64s WALL (    2356 calls)
     h_psi        :     32.23s CPU     32.49s WALL (    4750 calls)
     s_psi        :      6.01s CPU      6.05s WALL (    4750 calls)
     g_psi        :      0.20s CPU      0.20s WALL (    3320 calls)

     Called by h_psi:
     h_psi:calbec :      5.12s CPU      5.17s WALL (    4750 calls)
     vloc_psi     :     20.83s CPU     21.01s WALL (    4750 calls)
     add_vuspsi   :      6.10s CPU      6.14s WALL (    4750 calls)

     General routines
     calbec       :      7.19s CPU      7.28s WALL (    6050 calls)
     fft          :      0.26s CPU      0.27s WALL (     269 calls)
     ffts         :      0.13s CPU      0.13s WALL (      42 calls)
     fftw         :     19.04s CPU     19.23s WALL (  269162 calls)
     interpolate  :      0.14s CPU      0.14s WALL (      22 calls)


     PAW routines
     PAW_pot      :      9.32s CPU      9.99s WALL (      11 calls)
     PAW_symme    :      0.01s CPU      0.01s WALL (      21 calls)

     PWSCF        :   1m31.84s CPU   1m34.76s WALL


   This run was terminated on:  13:38: 0  11Aug2025            

=------------------------------------------------------------------------------=
   JOB DONE.
=------------------------------------------------------------------------------=
